    8    8 1000    2
  0.1212847E+03  0.6979411E-09  0.6979411E-09  0.2300000E-08  0.1000000E-15
   1.0000000000000000E-004
  CAR 
 CrI3                                    
     66     26     44

  0.1262379E-14  0.1262379E-14  0.1262379E-14  0.6944444E-02
      1        -47.586117      -44.268468   1.000000   1.000000
      2        -47.585432      -44.267506   1.000000   1.000000
      3        -47.576029      -44.237038   1.000000   1.000000
      4        -47.576029      -44.237036   1.000000   1.000000
      5        -47.574045      -44.234389   1.000000   1.000000
      6        -47.574045      -44.234387   1.000000   1.000000
      7        -15.836315      -15.907110   1.000000   1.000000
      8        -15.162568      -15.279717   1.000000   1.000000
      9        -14.893718      -15.007364   1.000000   1.000000
     10        -14.893716      -15.007362   1.000000   1.000000
     11        -14.796937      -14.904635   1.000000   1.000000
     12        -14.796936      -14.904634   1.000000   1.000000
     13         -7.618317       -7.293199   1.000000   1.000000
     14         -7.254536       -6.849681   1.000000   1.000000
     15         -6.779219       -6.369312   1.000000   1.000000
     16         -6.779218       -6.369311   1.000000   1.000000
     17         -6.764670       -6.173054   1.000000   1.000000
     18         -6.764669       -6.145183   1.000000   1.000000
     19         -6.156626       -6.145183   1.000000   1.000000
     20         -6.080073       -5.430084   1.000000   1.000000
     21         -5.903674       -5.068246   1.000000   1.000000
     22         -5.903673       -5.068246   1.000000   1.000000
     23         -5.723575       -4.893217   1.000000   1.000000
     24         -5.556905       -4.836737   1.000000   1.000000
     25         -5.556904       -4.836736   1.000000   1.000000
     26         -5.307125       -4.328930   1.000000   1.000000
     27         -5.307124       -3.911005   1.000000   1.000000
     28         -4.868456       -3.911004   1.000000   1.000000
     29         -4.868455       -3.493179   1.000000   1.000000
     30         -4.852964       -3.493179   1.000000   1.000000
     31         -4.766002       -0.339269   1.000000   0.000000
     32         -4.238772       -0.338257   1.000000   0.000000
     33         -3.891968       -0.234413   1.000000   0.000000
     34         -3.891968       -0.231960   1.000000   0.000000
     35         -3.356083       -0.051595   1.000000   0.000000
     36         -3.356083       -0.049320   1.000000   0.000000
     37         -2.219759        0.130884   0.000000   0.000000
     38         -2.219758        0.131885   0.000000   0.000000
     39         -1.830880        0.279024   0.000000   0.000000
     40         -1.830879        0.289119   0.000000   0.000000
     41          1.285562        1.506600   0.000000   0.000000
     42          1.427829        2.205661   0.000000   0.000000
     43          2.102992        2.366675   0.000000   0.000000
     44          2.258457        2.674377   0.000000   0.000000

  0.8333333E-01  0.1249001E-14  0.1262379E-14  0.4166667E-01
      1        -47.586131      -44.268472   1.000000   1.000000
      2        -47.585488      -44.267559   1.000000   1.000000
      3        -47.576037      -44.237053   1.000000   1.000000
      4        -47.576013      -44.237017   1.000000   1.000000
      5        -47.574055      -44.234405   1.000000   1.000000
      6        -47.574018      -44.234357   1.000000   1.000000
      7        -15.822882      -15.894138   1.000000   1.000000
      8        -15.154979      -15.271989   1.000000   1.000000
      9        -14.912087      -15.024906   1.000000   1.000000
     10        -14.900833      -15.014644   1.000000   1.000000
     11        -14.798375      -14.906017   1.000000   1.000000
     12        -14.798279      -14.905788   1.000000   1.000000
     13         -7.616070       -7.295943   1.000000   1.000000
     14         -7.247687       -6.846465   1.000000   1.000000
     15         -6.816770       -6.381295   1.000000   1.000000
     16         -6.813144       -6.322377   1.000000   1.000000
     17         -6.731369       -6.317246   1.000000   1.000000
     18         -6.714854       -6.169628   1.000000   1.000000
     19         -6.154315       -5.952920   1.000000   1.000000
     20         -6.042682       -5.349460   1.000000   1.000000
     21         -5.925432       -5.111252   1.000000   1.000000
     22         -5.896517       -5.083977   1.000000   1.000000
     23         -5.735596       -4.859653   1.000000   1.000000
     24         -5.551810       -4.841953   1.000000   1.000000
     25         -5.537491       -4.825878   1.000000   1.000000
     26         -5.352375       -4.322386   1.000000   1.000000
     27         -5.303826       -3.926456   1.000000   1.000000
     28         -4.884483       -3.922356   1.000000   1.000000
     29         -4.849228       -3.599743   1.000000   1.000000
     30         -4.800051       -3.517076   1.000000   1.000000
     31         -4.742360       -0.355123   1.000000   0.000000
     32         -4.221971       -0.327238   1.000000   0.000000
     33         -3.899444       -0.235895   1.000000   0.000000
     34         -3.888198       -0.186206   1.000000   0.000000
     35         -3.442125       -0.060466   1.000000   0.000000
     36         -3.372356       -0.058738   1.000000   0.000000
     37         -2.219754        0.133446   0.000000   0.000000
     38         -2.212866        0.135037   0.000000   0.000000
     39         -1.883448        0.244766   0.000000   0.000000
     40         -1.838515        0.270563   0.000000   0.000000
     41          1.355741        1.569824   0.000000   0.000000
     42          1.443976        2.196604   0.000000   0.000000
     43          2.147605        2.346096   0.000000   0.000000
     44          2.349656        2.644777   0.000000   0.000000

  0.1666667E+00  0.1249001E-14  0.1262379E-14  0.4166667E-01
      1        -47.586112      -44.268439   1.000000   1.000000
      2        -47.585528      -44.267605   1.000000   1.000000
      3        -47.576060      -44.237087   1.000000   1.000000
      4        -47.575927      -44.236906   1.000000   1.000000
      5        -47.574120      -44.234491   1.000000   1.000000
      6        -47.573975      -44.234298   1.000000   1.000000
      7        -15.783345      -15.855961   1.000000   1.000000
      8        -15.132862      -15.249469   1.000000   1.000000
      9        -14.963599      -15.074104   1.000000   1.000000
     10        -14.918539      -15.032795   1.000000   1.000000
     11        -14.805128      -14.913010   1.000000   1.000000
     12        -14.803832      -14.910425   1.000000   1.000000
     13         -7.607529       -7.296721   1.000000   1.000000
     14         -7.229709       -6.837663   1.000000   1.000000
     15         -6.844865       -6.447180   1.000000   1.000000
     16         -6.842230       -6.393884   1.000000   1.000000
     17         -6.700761       -6.201163   1.000000   1.000000
     18         -6.637562       -6.181296   1.000000   1.000000
     19         -6.145329       -5.717857   1.000000   1.000000
     20         -5.985406       -5.220442   1.000000   1.000000
     21         -5.969054       -5.151647   1.000000   1.000000
     22         -5.879020       -5.126175   1.000000   1.000000
     23         -5.764702       -4.856995   1.000000   1.000000
     24         -5.533436       -4.828994   1.000000   1.000000
     25         -5.497829       -4.765356   1.000000   1.000000
     26         -5.427770       -4.299186   1.000000   1.000000
     27         -5.291610       -3.994724   1.000000   1.000000
     28         -4.915492       -3.947628   1.000000   1.000000
     29         -4.815543       -3.854244   1.000000   1.000000
     30         -4.686289       -3.580940   1.000000   1.000000
     31         -4.684339       -0.376463   1.000000   0.000000
     32         -4.165515       -0.290153   1.000000   0.000000
     33         -3.920023       -0.264446   1.000000   0.000000
     34         -3.884225       -0.109455   1.000000   0.000000
     35         -3.658256       -0.090444   1.000000   0.000000
     36         -3.422354       -0.060603   1.000000   0.000000
     37         -2.218765        0.137974   0.000000   0.000000
     38         -2.193750        0.144133   0.000000   0.000000
     39         -1.996297        0.170657   0.000000   0.000000
     40         -1.867715        0.236971   0.000000   0.000000
     41          1.474756        1.743626   0.000000   0.000000
     42          1.538614        2.252520   0.000000   0.000000
     43          2.235003        2.297194   0.000000   0.000000
     44          2.622706        2.838461   0.000000   0.000000

  0.2500000E+00  0.1249001E-14  0.1262379E-14  0.4166667E-01
      1        -47.586063      -44.268371   1.000000   1.000000
      2        -47.585567      -44.267663   1.000000   1.000000
      3        -47.576113      -44.237154   1.000000   1.000000
      4        -47.575804      -44.236744   1.000000   1.000000
      5        -47.574215      -44.234616   1.000000   1.000000
      6        -47.573955      -44.234262   1.000000   1.000000
      7        -15.720312      -15.795102   1.000000   1.000000
      8        -15.098197      -15.214190   1.000000   1.000000
      9        -15.041341      -15.148330   1.000000   1.000000
     10        -14.939937      -15.054767   1.000000   1.000000
     11        -14.821844      -14.930029   1.000000   1.000000
     12        -14.812923      -14.918449   1.000000   1.000000
     13         -7.596429       -7.289212   1.000000   1.000000
     14         -7.199555       -6.819200   1.000000   1.000000
     15         -6.851801       -6.531340   1.000000   1.000000
     16         -6.823741       -6.385985   1.000000   1.000000
     17         -6.680077       -6.186225   1.000000   1.000000
     18         -6.566545       -6.010313   1.000000   1.000000
     19         -6.128558       -5.470971   1.000000   1.000000
     20         -6.069541       -5.380707   1.000000   1.000000
     21         -5.940123       -5.179031   1.000000   1.000000
     22         -5.864488       -4.900750   1.000000   1.000000
     23         -5.775402       -4.881054   1.000000   1.000000
     24         -5.557432       -4.843375   1.000000   1.000000
     25         -5.508765       -4.663128   1.000000   1.000000
     26         -5.374840       -4.302599   1.000000   1.000000
     27         -5.261867       -4.276436   1.000000   1.000000
     28         -4.945753       -3.980470   1.000000   1.000000
     29         -4.803252       -3.961295   1.000000   1.000000
     30         -4.612442       -3.660428   1.000000   1.000000
     31         -4.555025       -0.399451   1.000000   0.000000
     32         -4.074427       -0.330499   1.000000   0.000000
     33         -3.956178       -0.227890   1.000000   0.000000
     34         -3.904787       -0.134908   1.000000   0.000000
     35         -3.902962       -0.119747   1.000000   0.000000
     36         -3.491839        0.021926   1.000000   0.000000
     37         -2.215299        0.073700   0.000000   0.000000
     38         -2.163260        0.142127   0.000000   0.000000
     39         -2.089345        0.175764   0.000000   0.000000
     40         -1.923783        0.226142   0.000000   0.000000
     41          1.470698        1.980181   0.000000   0.000000
     42          1.775545        2.168298   0.000000   0.000000
     43          2.331494        2.403575   0.000000   0.000000
     44          2.571974        2.965466   0.000000   0.000000

  0.3333333E+00  0.1165734E-14  0.1262379E-14  0.4166667E-01
      1        -47.585994      -44.268275   1.000000   1.000000
      2        -47.585617      -44.267735   1.000000   1.000000
      3        -47.576135      -44.237188   1.000000   1.000000
      4        -47.575660      -44.236550   1.000000   1.000000
      5        -47.574340      -44.234782   1.000000   1.000000
      6        -47.573904      -44.234196   1.000000   1.000000
      7        -15.638916      -15.716456   1.000000   1.000000
      8        -15.136644      -15.239470   1.000000   1.000000
      9        -15.054415      -15.169715   1.000000   1.000000
     10        -14.959192      -15.074554   1.000000   1.000000
     11        -14.849953      -14.958572   1.000000   1.000000
     12        -14.822806      -14.927355   1.000000   1.000000
     13         -7.594168       -7.280830   1.000000   1.000000
     14         -7.147049       -6.781214   1.000000   1.000000
     15         -6.842426       -6.591952   1.000000   1.000000
     16         -6.740238       -6.322996   1.000000   1.000000
     17         -6.663539       -6.117326   1.000000   1.000000
     18         -6.532729       -5.852849   1.000000   1.000000
     19         -6.172356       -5.584152   1.000000   1.000000
     20         -6.094854       -5.230298   1.000000   1.000000
     21         -6.025537       -5.210997   1.000000   1.000000
     22         -5.825009       -4.919653   1.000000   1.000000
     23         -5.752991       -4.869311   1.000000   1.000000
     24         -5.636654       -4.697285   1.000000   1.000000
     25         -5.504264       -4.643172   1.000000   1.000000
     26         -5.263788       -4.567094   1.000000   1.000000
     27         -5.221862       -4.306070   1.000000   1.000000
     28         -4.958587       -4.046869   1.000000   1.000000
     29         -4.828144       -3.954198   1.000000   1.000000
     30         -4.554028       -3.708307   1.000000   1.000000
     31         -4.431826       -0.462449   1.000000   0.000000
     32         -4.099336       -0.385518   1.000000   0.000000
     33         -4.053691       -0.179993   1.000000   0.000000
     34         -3.971752       -0.155161   1.000000   0.000000
     35         -3.904843       -0.137194   1.000000   0.000000
     36         -3.543393        0.016436   1.000000   0.000000
     37         -2.206893        0.049462   0.000000   0.000000
     38         -2.139796        0.155960   0.000000   0.000000
     39         -2.107731        0.201101   0.000000   0.000000
     40         -1.999024        0.243290   0.000000   0.000000
     41          1.376893        1.983591   0.000000   0.000000
     42          2.036806        2.259229   0.000000   0.000000
     43          2.438964        2.597290   0.000000   0.000000
     44          2.512718        2.901438   0.000000   0.000000

  0.4166667E+00  0.1165734E-14  0.1262379E-14  0.4166667E-01
      1        -47.585944      -44.268206   1.000000   1.000000
      2        -47.585664      -44.267806   1.000000   1.000000
      3        -47.576149      -44.237210   1.000000   1.000000
      4        -47.575539      -44.236396   1.000000   1.000000
      5        -47.574489      -44.234978   1.000000   1.000000
      6        -47.573866      -44.234144   1.000000   1.000000
      7        -15.551162      -15.631295   1.000000   1.000000
      8        -15.234328      -15.333492   1.000000   1.000000
      9        -15.007520      -15.122427   1.000000   1.000000
     10        -14.972304      -15.088031   1.000000   1.000000
     11        -14.886437      -14.995290   1.000000   1.000000
     12        -14.830258      -14.934142   1.000000   1.000000
     13         -7.600597       -7.278412   1.000000   1.000000
     14         -7.084417       -6.732390   1.000000   1.000000
     15         -6.826444       -6.629738   1.000000   1.000000
     16         -6.644940       -6.199217   1.000000   1.000000
     17         -6.608837       -6.030268   1.000000   1.000000
     18         -6.535369       -5.804751   1.000000   1.000000
     19         -6.253882       -5.722472   1.000000   1.000000
     20         -6.166502       -5.215713   1.000000   1.000000
     21         -6.070038       -5.070057   1.000000   1.000000
     22         -5.800142       -5.029766   1.000000   1.000000
     23         -5.720300       -4.924652   1.000000   1.000000
     24         -5.694221       -4.890415   1.000000   1.000000
     25         -5.518529       -4.498895   1.000000   1.000000
     26         -5.208104       -4.435789   1.000000   1.000000
     27         -5.138891       -4.381428   1.000000   1.000000
     28         -4.938562       -4.113045   1.000000   1.000000
     29         -4.884988       -3.973767   1.000000   1.000000
     30         -4.560458       -3.689705   1.000000   1.000000
     31         -4.337354       -0.546141   1.000000   0.000000
     32         -4.157493       -0.410884   1.000000   0.000000
     33         -4.139382       -0.205687   1.000000   0.000000
     34         -4.000361       -0.144364   1.000000   0.000000
     35         -3.825845       -0.119881   1.000000   0.000000
     36         -3.573337       -0.000400   1.000000   0.000000
     37         -2.188625        0.016375   0.000000   0.000000
     38         -2.153273        0.208869   0.000000   0.000000
     39         -2.075612        0.229947   0.000000   0.000000
     40         -2.050293        0.255483   0.000000   0.000000
     41          1.244102        1.830766   0.000000   0.000000
     42          2.347537        2.552246   0.000000   0.000000
     43          2.512008        2.661097   0.000000   0.000000
     44          2.566195        2.715020   0.000000   0.000000

  0.5000000E+00  0.1165734E-14  0.1262379E-14  0.2083333E-01
      1        -47.585935      -44.268186   1.000000   1.000000
      2        -47.585687      -44.267841   1.000000   1.000000
      3        -47.576157      -44.237224   1.000000   1.000000
      4        -47.575482      -44.236321   1.000000   1.000000
      5        -47.574561      -44.235069   1.000000   1.000000
      6        -47.573854      -44.234126   1.000000   1.000000
      7        -15.500527      -15.581461   1.000000   1.000000
      8        -15.288581      -15.386547   1.000000   1.000000
      9        -14.978051      -15.093359   1.000000   1.000000
     10        -14.977121      -15.093167   1.000000   1.000000
     11        -14.912098      -15.020309   1.000000   1.000000
     12        -14.833014      -14.936664   1.000000   1.000000
     13         -7.604579       -7.278710   1.000000   1.000000
     14         -7.054704       -6.708609   1.000000   1.000000
     15         -6.819110       -6.642665   1.000000   1.000000
     16         -6.633819       -6.047996   1.000000   1.000000
     17         -6.543424       -5.992836   1.000000   1.000000
     18         -6.508691       -5.990662   1.000000   1.000000
     19         -6.289274       -5.623908   1.000000   1.000000
     20         -6.271083       -5.313985   1.000000   1.000000
     21         -6.058623       -5.139024   1.000000   1.000000
     22         -5.793858       -4.954779   1.000000   1.000000
     23         -5.716028       -4.937390   1.000000   1.000000
     24         -5.704149       -4.899473   1.000000   1.000000
     25         -5.527296       -4.486330   1.000000   1.000000
     26         -5.210363       -4.417039   1.000000   1.000000
     27         -5.054925       -4.337192   1.000000   1.000000
     28         -4.941127       -4.157561   1.000000   1.000000
     29         -4.920656       -3.991809   1.000000   1.000000
     30         -4.580226       -3.669066   1.000000   1.000000
     31         -4.296547       -0.582007   1.000000   0.000000
     32         -4.214736       -0.421052   1.000000   0.000000
     33         -4.124783       -0.214078   1.000000   0.000000
     34         -4.015161       -0.144447   1.000000   0.000000
     35         -3.787808       -0.117865   1.000000   0.000000
     36         -3.587484        0.000081   1.000000   0.000000
     37         -2.166108        0.004831   0.000000   0.000000
     38         -2.157297        0.236584   0.000000   0.000000
     39         -2.121697        0.245588   0.000000   0.000000
     40         -2.021637        0.254440   0.000000   0.000000
     41          1.183825        1.771729   0.000000   0.000000
     42          2.456903        2.572982   0.000000   0.000000
     43          2.569013        2.775715   0.000000   0.000000
     44          2.725208        2.841829   0.000000   0.000000

  0.8333333E-01  0.8333333E-01  0.1262379E-14  0.4166667E-01
      1        -47.586133      -44.268465   1.000000   1.000000
      2        -47.585534      -44.267612   1.000000   1.000000
      3        -47.576076      -44.237101   1.000000   1.000000
      4        -47.575973      -44.236960   1.000000   1.000000
      5        -47.574105      -44.234473   1.000000   1.000000
      6        -47.574013      -44.234346   1.000000   1.000000
      7        -15.796383      -15.868551   1.000000   1.000000
      8        -15.140127      -15.256866   1.000000   1.000000
      9        -14.945232      -15.056520   1.000000   1.000000
     10        -14.915133      -15.029162   1.000000   1.000000
     11        -14.803114      -14.910851   1.000000   1.000000
     12        -14.801038      -14.908040   1.000000   1.000000
     13         -7.609422       -7.296469   1.000000   1.000000
     14         -7.236202       -6.841280   1.000000   1.000000
     15         -6.871985       -6.410596   1.000000   1.000000
     16         -6.794551       -6.401482   1.000000   1.000000
     17         -6.722458       -6.220123   1.000000   1.000000
     18         -6.655331       -6.197100   1.000000   1.000000
     19         -6.148487       -5.781981   1.000000   1.000000
     20         -5.997611       -5.212238   1.000000   1.000000
     21         -5.956666       -5.188154   1.000000   1.000000
     22         -5.883179       -5.109248   1.000000   1.000000
     23         -5.757045       -4.869499   1.000000   1.000000
     24         -5.542645       -4.803865   1.000000   1.000000
     25         -5.501274       -4.799986   1.000000   1.000000
     26         -5.419254       -4.309157   1.000000   1.000000
     27         -5.290258       -3.952472   1.000000   1.000000
     28         -4.920025       -3.950193   1.000000   1.000000
     29         -4.796705       -3.782068   1.000000   1.000000
     30         -4.739001       -3.562261   1.000000   1.000000
     31         -4.698341       -0.362477   1.000000   0.000000
     32         -4.185152       -0.322534   1.000000   0.000000
     33         -3.908301       -0.240760   1.000000   0.000000
     34         -3.888325       -0.123210   1.000000   0.000000
     35         -3.595124       -0.076732   1.000000   0.000000
     36         -3.402835       -0.073471   1.000000   0.000000
     37         -2.219831        0.136963   0.000000   0.000000
     38         -2.199661        0.144063   0.000000   0.000000
     39         -1.972059        0.193211   0.000000   0.000000
     40         -1.849834        0.246171   0.000000   0.000000
     41          1.469206        1.694484   0.000000   0.000000
     42          1.480500        2.227826   0.000000   0.000000
     43          2.206587        2.273719   0.000000   0.000000
     44          2.538751        2.766681   0.000000   0.000000

  0.1666667E+00  0.8333333E-01  0.1262379E-14  0.4166667E-01
      1        -47.586086      -44.268401   1.000000   1.000000
      2        -47.585546      -44.267634   1.000000   1.000000
      3        -47.576091      -44.237129   1.000000   1.000000
      4        -47.575835      -44.236787   1.000000   1.000000
      5        -47.574196      -44.234588   1.000000   1.000000
      6        -47.573966      -44.234282   1.000000   1.000000
      7        -15.745032      -15.818976   1.000000   1.000000
      8        -15.111733      -15.227959   1.000000   1.000000
      9        -15.006771      -15.115127   1.000000   1.000000
     10        -14.938181      -15.052561   1.000000   1.000000
     11        -14.815181      -14.923114   1.000000   1.000000
     12        -14.807721      -14.913972   1.000000   1.000000
     13         -7.592700       -7.286711   1.000000   1.000000
     14         -7.218269       -6.832088   1.000000   1.000000
     15         -6.901419       -6.489802   1.000000   1.000000
     16         -6.779237       -6.416531   1.000000   1.000000
     17         -6.695586       -6.203723   1.000000   1.000000
     18         -6.588370       -6.061594   1.000000   1.000000
     19         -6.134024       -5.555228   1.000000   1.000000
     20         -6.051341       -5.324101   1.000000   1.000000
     21         -5.923364       -5.150455   1.000000   1.000000
     22         -5.864942       -4.994107   1.000000   1.000000
     23         -5.783527       -4.915438   1.000000   1.000000
     24         -5.548150       -4.786173   1.000000   1.000000
     25         -5.488567       -4.711127   1.000000   1.000000
     26         -5.433227       -4.322490   1.000000   1.000000
     27         -5.252762       -4.102004   1.000000   1.000000
     28         -4.964050       -3.983761   1.000000   1.000000
     29         -4.754273       -3.946368   1.000000   1.000000
     30         -4.658228       -3.638401   1.000000   1.000000
     31         -4.613722       -0.375407   1.000000   0.000000
     32         -4.110667       -0.324087   1.000000   0.000000
     33         -3.925219       -0.256878   1.000000   0.000000
     34         -3.899986       -0.113960   1.000000   0.000000
     35         -3.824602       -0.106282   1.000000   0.000000
     36         -3.462592       -0.016471   1.000000   0.000000
     37         -2.219681        0.103720   0.000000   0.000000
     38         -2.175238        0.152382   0.000000   0.000000
     39         -2.079531        0.178007   0.000000   0.000000
     40         -1.878943        0.216437   0.000000   0.000000
     41          1.490132        1.893039   0.000000   0.000000
     42          1.681809        2.215224   0.000000   0.000000
     43          2.286422        2.402107   0.000000   0.000000
     44          2.494718        2.919268   0.000000   0.000000

 -0.1666667E+00  0.2500000E+00  0.1262379E-14  0.4166667E-01
      1        -47.586086      -44.268401   1.000000   1.000000
      2        -47.585546      -44.267634   1.000000   1.000000
      3        -47.576091      -44.237127   1.000000   1.000000
      4        -47.575835      -44.236788   1.000000   1.000000
      5        -47.574196      -44.234590   1.000000   1.000000
      6        -47.573965      -44.234281   1.000000   1.000000
      7        -15.745032      -15.818976   1.000000   1.000000
      8        -15.111733      -15.227959   1.000000   1.000000
      9        -15.006770      -15.115126   1.000000   1.000000
     10        -14.938182      -15.052562   1.000000   1.000000
     11        -14.815179      -14.923112   1.000000   1.000000
     12        -14.807724      -14.913974   1.000000   1.000000
     13         -7.592699       -7.286711   1.000000   1.000000
     14         -7.218271       -6.832088   1.000000   1.000000
     15         -6.901396       -6.489808   1.000000   1.000000
     16         -6.779297       -6.416523   1.000000   1.000000
     17         -6.695537       -6.203725   1.000000   1.000000
     18         -6.588379       -6.061595   1.000000   1.000000
     19         -6.134028       -5.555226   1.000000   1.000000
     20         -6.051332       -5.324103   1.000000   1.000000
     21         -5.923372       -5.150450   1.000000   1.000000
     22         -5.864943       -4.994108   1.000000   1.000000
     23         -5.783524       -4.915444   1.000000   1.000000
     24         -5.548145       -4.786173   1.000000   1.000000
     25         -5.488573       -4.711122   1.000000   1.000000
     26         -5.433228       -4.322511   1.000000   1.000000
     27         -5.252760       -4.101944   1.000000   1.000000
     28         -4.964051       -3.983822   1.000000   1.000000
     29         -4.754271       -3.946352   1.000000   1.000000
     30         -4.658215       -3.638397   1.000000   1.000000
     31         -4.613737       -0.375286   1.000000   0.000000
     32         -4.110669       -0.324134   1.000000   0.000000
     33         -3.925204       -0.256993   1.000000   0.000000
     34         -3.900015       -0.114299   1.000000   0.000000
     35         -3.824581       -0.106198   1.000000   0.000000
     36         -3.462599       -0.016225   1.000000   0.000000
     37         -2.219681        0.103030   0.000000   0.000000
     38         -2.175238        0.153095   0.000000   0.000000
     39         -2.079527        0.176383   0.000000   0.000000
     40         -1.878948        0.216025   0.000000   0.000000
     41          1.490536        1.890090   0.000000   0.000000
     42          1.682079        2.297631   0.000000   0.000000
     43          2.284622        2.331962   0.000000   0.000000
     44          2.650154        2.913888   0.000000   0.000000

  0.2500000E+00  0.8333333E-01  0.1262379E-14  0.4166667E-01
      1        -47.586020      -44.268311   1.000000   1.000000
      2        -47.585601      -44.267709   1.000000   1.000000
      3        -47.576125      -44.237177   1.000000   1.000000
      4        -47.575709      -44.236615   1.000000   1.000000
      5        -47.574296      -44.234727   1.000000   1.000000
      6        -47.573913      -44.234212   1.000000   1.000000
      7        -15.672433      -15.748885   1.000000   1.000000
      8        -15.091304      -15.195735   1.000000   1.000000
      9        -15.072467      -15.188021   1.000000   1.000000
     10        -14.961403      -15.076170   1.000000   1.000000
     11        -14.836672      -14.945133   1.000000   1.000000
     12        -14.817721      -14.923010   1.000000   1.000000
     13         -7.574980       -7.267818   1.000000   1.000000
     14         -7.185971       -6.810224   1.000000   1.000000
     15         -6.890280       -6.550885   1.000000   1.000000