The Job ID is 204571
 running  256 mpi-ranks, with    1 threads/rank, on    2 nodes
 distrk:  each k-point on   32 cores,    8 groups
 distr:  one band on    8 cores,    4 groups
 vasp.6.4.3 19Mar24 (build Sep 16 2025 16:33:43) complex                         
 POSCAR found type information on POSCAR CrI 
 POSCAR found :  2 types and       8 ions
 scaLAPACK will be used
 LDA part: xc-table for (Slater+PW92), standard interpolation
 POSCAR found type information on POSCAR CrI 
 POSCAR found :  2 types and       8 ions
 POSCAR, INCAR and KPOINTS ok, starting setup
 FFT: planning ... GRIDC
 FFT: planning ... GRID_SOFT
 FFT: planning ... GRID
 WAVECAR not read
 WARNING: chargedensity file is incomplete
 entering main loop
       N       E                     dE             d eps       ncg     rms          rms(c)
DAV:   1     0.502085475317E+03    0.50209E+03   -0.20778E+04  5472   0.799E+02
DAV:   2     0.504488550231E+02   -0.45164E+03   -0.43243E+03  6808   0.272E+02
DAV:   3    -0.249292205870E+02   -0.75378E+02   -0.74673E+02  6944   0.107E+02
DAV:   4    -0.286756539905E+02   -0.37464E+01   -0.37273E+01  7432   0.327E+01
DAV:   5    -0.287801437151E+02   -0.10449E+00   -0.10437E+00  7464   0.515E+00    0.153E+01
RMM:   6    -0.276127197861E+02    0.11674E+01   -0.25976E+01  4900   0.469E+01    0.132E+01
RMM:   7    -0.277343501827E+02   -0.12163E+00   -0.43030E+00  5072   0.234E+01    0.251E+00
RMM:   8    -0.276058387133E+02    0.12851E+00   -0.35871E+00  5403   0.554E+00    0.310E+00
RMM:   9    -0.273756514061E+02    0.23019E+00   -0.42323E-01  5288   0.642E+00    0.114E+00
RMM:  10    -0.276001396209E+02   -0.22449E+00   -0.14110E-01  5897   0.174E+00    0.799E-01
RMM:  11    -0.278531104491E+02   -0.25297E+00   -0.67235E-02  5672   0.117E+00    0.511E-01
RMM:  12    -0.281131178299E+02   -0.26001E+00   -0.50062E-02  5638   0.707E-01    0.414E-01
RMM:  13    -0.283364405557E+02   -0.22332E+00   -0.48184E-02  5485   0.727E-01    0.300E-01
RMM:  14    -0.284130510928E+02   -0.76611E-01   -0.21199E-02  5695   0.537E-01    0.146E-01
RMM:  15    -0.284603492528E+02   -0.47298E-01   -0.97934E-03  5609   0.293E-01    0.133E-01
RMM:  16    -0.284977944892E+02   -0.37445E-01   -0.48130E-03  5751   0.240E-01    0.515E-02
RMM:  17    -0.285061229040E+02   -0.83284E-02   -0.17912E-03  5814   0.129E-01    0.229E-02
RMM:  18    -0.285087748436E+02   -0.26519E-02   -0.53889E-04  5539   0.651E-02    0.127E-02
RMM:  19    -0.285099959564E+02   -0.12211E-02   -0.27361E-04  4898   0.487E-02    0.853E-03
RMM:  20    -0.285105135030E+02   -0.51755E-03   -0.13064E-04  4655   0.384E-02    0.512E-03
RMM:  21    -0.285108214734E+02   -0.30797E-03   -0.53391E-05  4751   0.275E-02    0.409E-03
RMM:  22    -0.285109643037E+02   -0.14283E-03   -0.13501E-05  3959   0.173E-02    0.225E-03
RMM:  23    -0.285110330826E+02   -0.68779E-04   -0.91969E-06  3795   0.166E-02    0.158E-03
RMM:  24    -0.285110765285E+02   -0.43446E-04   -0.56147E-06  3467   0.110E-02    0.980E-04
RMM:  25    -0.285110985216E+02   -0.21993E-04   -0.27697E-06  3250   0.110E-02    0.883E-04
RMM:  26    -0.285111051357E+02   -0.66141E-05   -0.11027E-06  3004   0.798E-03    0.339E-04
RMM:  27    -0.285111077513E+02   -0.26156E-05   -0.46989E-07  2850   0.617E-03    0.321E-04
RMM:  28    -0.285111089460E+02   -0.11947E-05   -0.17357E-07  2717   0.375E-03    0.277E-04
RMM:  29    -0.285111094698E+02   -0.52378E-06   -0.93145E-08  2556   0.270E-03
 chain_force8
 chain_force8aa
 NIONS:            8
 force:   -1.5222675866218195E-020   1.1051947886316671E-020  -1.4218686200547116E-004  -9.1745376569738706E-021   9.0248961105196673E-021   4.7789948329678502E-004  -2.0566695136485204E-004  -1.1759177915344656E-004   6.1884055158355753E-004   2.0467094370552015E-004  -1.1931691502413717E-004   6.1884055158355753E-004   9.9600765933188658E-007   2.3690869417758374E-004   6.1884055158355753E-004   1.1175200895198748E-004  -2.5370599100115870E-004  -7.3074475868066221E-004   1.6383982882331590E-004   2.2363307417694648E-004  -7.3074475868066221E-004  -2.7559183777530334E-004   3.0072916824212204E-005  -7.3074475868066232E-004
 Free:    1.0000000000000000        1.0000000000000000        1.0000000000000000        1.0000000000000000        1.0000000000000000        1.0000000000000000        1.0000000000000000        1.0000000000000000        1.0000000000000000        1.0000000000000000        1.0000000000000000        1.0000000000000000        1.0000000000000000        1.0000000000000000        1.0000000000000000        1.0000000000000000        1.0000000000000000        1.0000000000000000        1.0000000000000000        1.0000000000000000        1.0000000000000000        1.0000000000000000        1.0000000000000000        1.0000000000000000     
 B:   0.14327857317060830        8.2721922789156202E-002  -0.0000000000000000        0.0000000000000000       0.16544384557831240        0.0000000000000000        0.0000000000000000       -0.0000000000000000        4.3478260869565216E-002
 A:    6.9794106534635487        0.0000000000000000        0.0000000000000000       -3.4897053267317744        6.0443469293431820        0.0000000000000000        0.0000000000000000        0.0000000000000000        23.000000000000000     
 chain_force8ab
 chain_force8ac
 chain_force8ad
 chain_force8a
 chain_force8b
 chain_force9
   1 F= -.29809582E+02 E0= -.29809582E+02  d E =-.298096E+02  mag=     6.0000
 curvature:   0.00 expect dE= 0.000E+00 dE for cont linesearch  0.000E+00
 trial: gam= 0.00000 g(F)=  0.328E-07 g(S)=  0.516E-07 ort = 0.000E+00 (trialstep = 0.100E+01)
 search vector abs. value=  0.845E-07
 reached required accuracy - stopping structural energy minimisation
 writing wavefunctions
