<UPF version="2.0.1">
  <PP_INFO>
    Generated by new atomic code, or converted to UPF format
    Author: 
    Generation date: 
    Pseudopotential type: NC
    Element: Ba
    Functional: SLA  PW   PBE  PBE
    Suggested minimum cutoff for wavefunctions:   0. Ry
    Suggested minimum cutoff for charge density:   0. Ry
    The Pseudo was generated with a Non-Relativistic Calculation
    L component and cutoff radius for Local Potential:  0   0.0000
    Valence configuration: 
    nl pn  l   occ       Rcut    Rcut US       E pseu
    5S  1  0  2.00      0.000      0.000     0.000000
    5P  2  1  6.00      0.000      0.000     0.000000
    5D  3  2  1.00      0.000      0.000     0.000000
    Generation configuration: not available.
  </PP_INFO>
    <!-- END OF HUMAN READABLE SECTION -->
  <PP_HEADER generated="Generated by new atomic code, or converted to UPF format" author="" date="" comment="" element="Ba" pseudo_type="NC" relativistic="no" is_ultrasoft="false" is_paw="false" is_coulomb="false" has_so="false" has_wfc="false" has_gipaw="false" paw_as_gipaw="false" core_correction="false" with_metagga_info="false" functional="SLA  PW   PBE  PBE" z_valence="10.000000000000000" total_psenergy="0.0000000000000000" wfc_cutoff="0.0000000000000000" rho_cutoff="0.0000000000000000" l_max="2" l_max_rho="0" l_local="0" mesh_size="1179" number_of_wfc="3" number_of_proj="2"/>
  <PP_MESH mesh="1179" dx="1.2999999999999999E-002" xmin="-6.5267725781527499" rmax="116.96511537039942" zmesh="56.000000000000000">
    <PP_R>
   2.613789792873551E-05   2.647990885619724E-05   2.682639495128042E-05
   2.717741477095977E-05   2.753302763842030E-05   2.789329365308301E-05
   2.825827370076181E-05   2.862802946395345E-05   2.900262343226199E-05
   2.938211891295963E-05   2.976658004168584E-05   3.015607179328644E-05
   3.055065999279447E-05   3.095041132655481E-05   3.135539335349434E-05
   3.176567451653946E-05   3.218132415418324E-05   3.260241251220375E-05
   3.302901075553571E-05   3.346119098029760E-05   3.389902622597604E-05
   3.434259048776962E-05   3.479195872909433E-05   3.524720689425251E-05
   3.570841192126755E-05   3.617565175488676E-05   3.664900535975409E-05
   3.712855273375541E-05   3.761437492153828E-05   3.810655402820873E-05
   3.860517323320724E-05   3.911031680436620E-05   3.962207011215149E-05
   4.014051964409004E-05   4.066575301938677E-05   4.119785900373221E-05
   4.173692752430416E-05   4.228304968496564E-05   4.283631778166163E-05
   4.339682531801730E-05   4.396466702114036E-05   4.453993885763020E-05
   4.512273804979629E-05   4.571316309208929E-05   4.631131376774659E-05
   4.691729116565605E-05   4.753119769744020E-05   4.815313711476407E-05
   4.878321452686946E-05   4.942153641833870E-05   5.006821066709064E-05
   5.072334656261249E-05   5.138705482442990E-05   5.205944762081881E-05
   5.274063858776215E-05   5.343074284815465E-05   5.412987703125881E-05
   5.483815929241561E-05   5.555570933301295E-05   5.628264842071557E-05
   5.701909940995940E-05   5.776518676271449E-05   5.852103656951921E-05
   5.928677657078991E-05   6.006253617840932E-05   6.084844649759755E-05
   6.164464034906905E-05   6.245125229147981E-05   6.326841864416779E-05
   6.409627751019159E-05   6.493496879966996E-05   6.578463425342698E-05
   6.664541746694663E-05   6.751746391464072E-05   6.840092097443449E-05
   6.929593795267375E-05   7.020266610935804E-05   7.112125868370396E-05
   7.205187092004296E-05   7.299466009405781E-05   7.394978553936289E-05
   7.491740867443179E-05   7.589769302987734E-05   7.689080427608878E-05
   7.789691025123044E-05   7.891618098960682E-05   7.994878875039851E-05
   8.099490804677486E-05   8.205471567538684E-05   8.312839074624613E-05
   8.421611471299513E-05   8.531807140357314E-05   8.643444705128361E-05
   8.756543032626809E-05   8.871121236739191E-05   8.987198681454710E-05
   9.104794984137803E-05   9.223930018843502E-05   9.344623919676229E-05
   9.466897084192491E-05   9.590770176848114E-05   9.716264132490584E-05
   9.843400159897094E-05   9.972199745358879E-05   1.010268465631242E-04
   1.023487694501825E-04   1.036879895228778E-04   1.050447331125899E-04
   1.064192295122147E-04   1.078117110149151E-04   1.092224129533793E-04
   1.106515737395926E-04   1.120994349051293E-04   1.135662411419725E-04
   1.150522403438674E-04   1.165576836482157E-04   1.180828254785192E-04
   1.196279235873771E-04   1.211932391000473E-04   1.227790365585771E-04
   1.243855839665112E-04   1.260131528341855E-04   1.276620182246122E-04
   1.293324587999668E-04   1.310247568686823E-04   1.327391984331602E-04
   1.344760732381055E-04   1.362356748194941E-04   1.380183005541812E-04
   1.398242517101590E-04   1.416538334974710E-04   1.435073551197938E-04
   1.453851298266935E-04   1.472874749665644E-04   1.492147120402631E-04
   1.511671667554420E-04   1.531451690815951E-04   1.551490533058233E-04
   1.571791580893300E-04   1.592358265246555E-04   1.613194061936601E-04
   1.634302492262673E-04   1.655687123599736E-04   1.677351570001382E-04
   1.699299492810618E-04   1.721534601278635E-04   1.744060653191688E-04
   1.766881455506163E-04   1.790000864991968E-04   1.813422788884331E-04
   1.837151185544139E-04   1.861190065126900E-04   1.885543490260480E-04
   1.910215576731690E-04   1.935210494181865E-04   1.960532466811547E-04
   1.986185774094376E-04   2.012174751500340E-04   2.038503791228479E-04
   2.065177342949172E-04   2.092199914556144E-04   2.119576072928315E-04
   2.147310444701607E-04   2.175407717050860E-04   2.203872638481976E-04
   2.232710019634425E-04   2.261924734094258E-04   2.291521719217753E-04
   2.321505976965839E-04   2.351882574749443E-04   2.382656646285886E-04
   2.413833392466504E-04   2.445418082235606E-04   2.477416053480940E-04
   2.509832713935800E-04   2.542673542092959E-04   2.575944088130541E-04
   2.609649974850014E-04   2.643796898626455E-04   2.678390630371257E-04
   2.713437016507420E-04   2.748941979957616E-04   2.784911521145172E-04
   2.821351719008161E-04   2.858268732026751E-04   2.895668799264011E-04
   2.933558241420318E-04   2.971943461901581E-04   3.010830947901415E-04
   3.050227271497513E-04   3.090139090762330E-04   3.130573150888319E-04
   3.171536285327872E-04   3.213035416948208E-04   3.255077559201344E-04
   3.297669817309384E-04   3.340819389465325E-04   3.384533568049557E-04
   3.428819740862306E-04   3.473685392372184E-04   3.519138104981083E-04
   3.565185560305610E-04   3.611835540475315E-04   3.659095929447879E-04
   3.706974714341522E-04   3.755479986784848E-04   3.804619944284345E-04
   3.854402891609790E-04   3.904837242197768E-04   3.955931519573570E-04
   4.007694358791679E-04   4.060134507895123E-04   4.113260829393915E-04
   4.167082301762832E-04   4.221608020958809E-04   4.276847201958160E-04
   4.332809180313953E-04   4.389503413733724E-04   4.446939483677861E-04
   4.505127096978884E-04   4.564076087481934E-04   4.623796417706711E-04
   4.684298180531164E-04   4.745591600897212E-04   4.807687037538775E-04
   4.870594984732443E-04   4.934326074071019E-04   4.998891076260287E-04
   5.064300902939287E-04   5.130566608524408E-04   5.197699392077616E-04
   5.265710599199111E-04   5.334611723944775E-04   5.404414410768674E-04
   5.475130456491024E-04   5.546771812291859E-04   5.619350585730828E-04
   5.692879042793382E-04   5.767369609963769E-04   5.842834876325139E-04
   5.919287595687120E-04   5.996740688741252E-04   6.075207245244600E-04
   6.154700526231977E-04   6.235233966257071E-04   6.316821175662923E-04
   6.399475942882105E-04   6.483212236767006E-04   6.568044208950595E-04
   6.653986196238074E-04   6.741052723029853E-04   6.829258503776178E-04
   6.918618445463938E-04   7.009147650135962E-04   7.100861417443311E-04
   7.193775247230943E-04   7.287904842157237E-04   7.383266110347774E-04
   7.479875168083848E-04   7.577748342526159E-04   7.676902174474127E-04
   7.777353421161350E-04   7.879119059087603E-04   7.982216286887912E-04
   8.086662528239148E-04   8.192475434804694E-04   8.299672889217609E-04
   8.408273008102824E-04   8.518294145138915E-04   8.629754894159897E-04
   8.742674092297643E-04   8.857070823165396E-04   8.972964420082954E-04
   9.090374469344025E-04   9.209320813526387E-04   9.329823554845308E-04
   9.451903058550882E-04   9.575579956369797E-04   9.700875149992142E-04
   9.827809814603858E-04   9.956405402465379E-04   1.008668364653713E-03
   1.021866656415242E-03   1.035237646073847E-03   1.048783593358604E-03
   1.062506787566846E-03   1.076409547951055E-03   1.090494224110827E-03
   1.104763196389955E-03   1.119218876278716E-03   1.133863706821418E-03
   1.148700163029278E-03   1.163730752298707E-03   1.178958014835066E-03
   1.194384524081967E-03   1.210012887156189E-03   1.225845745288287E-03
   1.241885774268971E-03   1.258135684901314E-03   1.274598223458891E-03
   1.291276172149898E-03   1.308172349587362E-03   1.325289611265482E-03
   1.342630850042224E-03   1.360198996628215E-03   1.377997020082040E-03
   1.396027928312026E-03   1.414294768584578E-03   1.432800628039179E-03
   1.451548634210123E-03   1.470541955555076E-03   1.489783801990548E-03
   1.509277425434386E-03   1.529026120355349E-03   1.549033224329883E-03
   1.569302118606176E-03   1.589836228675605E-03   1.610639024851645E-03
   1.631714022856361E-03   1.653064784414578E-03   1.674694917855814E-03
   1.696608078724104E-03   1.718807970395789E-03   1.741298344705401E-03
   1.764083002579726E-03   1.787165794680176E-03   1.810550622053553E-03
   1.834241436791344E-03   1.858242242697626E-03   1.882557095965718E-03
   1.907190105863697E-03   1.932145435428864E-03   1.957427302171311E-03
   1.983039978786692E-03   2.008987793878314E-03   2.035275132688687E-03
   2.061906437840636E-03   2.088886210088120E-03   2.116219009076857E-03
   2.143909454114934E-03   2.171962224953468E-03   2.200382062577500E-03
   2.229173770007230E-03   2.258342213109740E-03   2.287892321421338E-03
   2.317829088980663E-03   2.348157575172684E-03   2.378882905583749E-03
   2.410010272867830E-03   2.441544937624082E-03   2.473492229285907E-03
   2.505857547021631E-03   2.538646360646986E-03   2.571864211549514E-03
   2.605516713625079E-03   2.639609554226631E-03   2.674148495125371E-03
   2.709139373484520E-03   2.744588102845801E-03   2.780500674128848E-03
   2.816883156643684E-03   2.853741699116447E-03   2.891082530728541E-03
   2.928911962169386E-03   2.967236386702933E-03   3.006062281248140E-03
   3.045396207473597E-03   3.085244812906454E-03   3.125614832055874E-03
   3.166513087551177E-03   3.207946491294883E-03   3.249922045630842E-03
   3.292446844527641E-03   3.335528074777510E-03   3.379173017210893E-03
   3.423389047926943E-03   3.468183639540090E-03   3.513564362442932E-03
   3.559538886085650E-03   3.606114980272163E-03   3.653300516473245E-03
   3.701103469156819E-03   3.749531917135669E-03   3.798594044932759E-03
   3.848298144164465E-03   3.898652614941856E-03   3.949665967290344E-03
   4.001346822587890E-03   4.053703915022046E-03   4.106746093066048E-03
   4.160482320974231E-03   4.214921680297013E-03   4.270073371415683E-03
   4.325946715097310E-03   4.382551154069959E-03   4.439896254618543E-03
   4.497991708201540E-03   4.556847333088878E-03   4.616473076021246E-03
   4.676879013891113E-03   4.738075355445757E-03   4.800072443012546E-03
   4.862880754246839E-03   4.926510903902727E-03   4.990973645626948E-03
   5.056279873776278E-03   5.122440625258714E-03   5.189467081398722E-03
   5.257370569826919E-03   5.326162566394473E-03   5.395854697112524E-03
   5.466458740117044E-03   5.537986627659345E-03   5.610450448122664E-03
   5.683862448065130E-03   5.758235034289461E-03   5.833580775939745E-03
   5.909912406625648E-03   5.987242826574440E-03   6.065585104811136E-03
   6.144952481367222E-03   6.225358369518242E-03   6.306816358050665E-03
   6.389340213558433E-03   6.472943882769539E-03   6.557641494903065E-03
   6.643447364057052E-03   6.730375991627617E-03   6.818442068759708E-03
   6.907660478829971E-03   6.998046299962056E-03   7.089614807574862E-03
   7.182381476964117E-03   7.276361985917743E-03   7.371572217365433E-03
   7.468028262062914E-03   7.565746421311318E-03   7.664743209712127E-03
   7.765035357958207E-03   7.866639815661318E-03   7.969573754216639E-03
   8.073854569704780E-03   8.179499885831755E-03   8.286527556907437E-03
   8.394955670862974E-03   8.504802552307700E-03   8.616086765626011E-03
   8.728827118114834E-03   8.843042663162071E-03   8.958752703466679E-03
   9.075976794300871E-03   9.194734746815003E-03   9.315046631385705E-03
   9.436932781007823E-03   9.560413794730754E-03   9.685510541139695E-03
   9.812244161882538E-03   9.940636075242832E-03   1.007070797975952E-02
   1.020248185789404E-02   1.033597997974544E-02   1.047122490681406E-02
   1.060823949581445E-02   1.074704690253828E-02   1.088767058576763E-02
   1.103013431123970E-02   1.117446215566315E-02   1.132067851078721E-02
   1.146880808752390E-02   1.161887592012426E-02   1.177090737040916E-02
   1.192492813205556E-02   1.208096423493878E-02   1.223904204953155E-02
   1.239918829136079E-02   1.256143002552255E-02   1.272579467125603E-02
   1.289231000657758E-02   1.306100417297519E-02   1.323190568016448E-02
   1.340504341090694E-02   1.358044662589115E-02   1.375814496867790E-02
   1.393816847071008E-02   1.412054755638799E-02   1.430531304821120E-02
   1.449249617198759E-02   1.468212856211059E-02   1.487424226690547E-02
   1.506886975404560E-02   1.526604391603953E-02   1.546579807578993E-02
   1.566816599222523E-02   1.587318186600497E-02   1.608088034529977E-02
   1.629129653164698E-02   1.650446598588290E-02   1.672042473415266E-02
   1.693920927399872E-02   1.716085658052905E-02   1.738540411266598E-02
   1.761288981947689E-02   1.784335214658768E-02   1.807683004268015E-02
   1.831336296607443E-02   1.855299089139755E-02   1.879575431633923E-02
   1.904169426849609E-02   1.929085231230541E-02   1.954327055606960E-02
   1.979899165907263E-02   2.005805883878956E-02   2.032051587819036E-02
   2.058640713313938E-02   2.085577753989154E-02   2.112867262268670E-02
   2.140513850144339E-02   2.168522189955313E-02   2.196897015177681E-02
   2.225643121224442E-02   2.254765366255935E-02   2.284268672000885E-02
   2.314158024588184E-02   2.344438475389558E-02   2.375115141873263E-02
   2.406193208468949E-02   2.437677927443841E-02   2.469574619790378E-02
   2.501888676125486E-02   2.534625557601596E-02   2.567790796829595E-02
   2.601389998813849E-02   2.635428841899462E-02   2.669913078731932E-02
   2.704848537229359E-02   2.740241121567380E-02   2.776096813176984E-02
   2.812421671755393E-02   2.849221836290165E-02   2.886503526096693E-02
   2.924273041869290E-02   2.962536766746015E-02   3.001301167387444E-02
   3.040572795069549E-02   3.080358286790880E-02   3.120664366394228E-02
   3.161497845702979E-02   3.202865625672325E-02   3.244774697555539E-02
   3.287232144085517E-02   3.330245140671777E-02   3.373820956613116E-02
   3.417966956326143E-02   3.462690600589884E-02   3.507999447806660E-02
   3.553901155279494E-02   3.600403480506198E-02   3.647514282490416E-02
   3.695241523069813E-02   3.743593268261640E-02   3.792577689625918E-02
   3.842203065646443E-02   3.892477783129883E-02   3.943410338623141E-02
   3.995009339849324E-02   4.047283507162451E-02   4.100241675021215E-02
   4.153892793482029E-02   4.208245929711608E-02   4.263310269519340E-02
   4.319095118909713E-02   4.375609905655049E-02   4.432864180888812E-02
   4.490867620719791E-02   4.549630027867370E-02   4.609161333318219E-02
   4.669471598004649E-02   4.730571014504936E-02   4.792469908765890E-02
   4.855178741847967E-02   4.918708111693217E-02   4.983068754916340E-02
   5.048271548619229E-02   5.114327512229210E-02   5.181247809361351E-02
   5.249043749705146E-02   5.317726790935872E-02   5.387308540650971E-02
   5.457800758331755E-02   5.529215357330797E-02   5.601564406885289E-02
   5.674860134156811E-02   5.749114926297721E-02   5.824341332544625E-02
   5.900552066339225E-02   5.977760007476921E-02   6.055978204283528E-02
   6.135219875820472E-02   6.215498414118853E-02   6.296827386442702E-02
   6.379220537581917E-02   6.462691792175147E-02   6.547255257063085E-02
   6.632925223672569E-02   6.719716170431855E-02   6.807642765217521E-02
   6.896719867833355E-02   6.986962532521721E-02   7.078386010507723E-02
   7.171005752576745E-02   7.264837411685640E-02   7.359896845608124E-02
   7.456200119614784E-02   7.553763509188136E-02   7.652603502773228E-02
   7.752736804564227E-02   7.854180337327459E-02   7.956951245261409E-02
   8.061066896894122E-02   8.166544888018530E-02   8.273403044666193E-02
   8.381659426119890E-02   8.491332327965763E-02   8.602440285185253E-02
   8.715002075287581E-02   8.829036721483179E-02   8.944563495898671E-02
   9.061601922833894E-02   9.180171782061566E-02   9.300293112170104E-02
   9.421986213950195E-02   9.545271653825683E-02   9.670170267329338E-02
   9.796703162624111E-02   9.924891724070470E-02   1.005475761584040E-01
   1.018632278557870E-01   1.031960946811220E-01   1.045464018920750E-01
   1.059143776937780E-01   1.073002532773978E-01   1.087042628592065E-01
   1.101266437201650E-01   1.115676362460244E-01   1.130274839679510E-01
   1.145064336036846E-01   1.160047350992336E-01   1.175226416711168E-01
   1.190604098491578E-01   1.206182995198385E-01   1.221965739702213E-01
   1.237954999324448E-01   1.254153476288020E-01   1.270563908174093E-01
   1.287189068384711E-01   1.304031766611521E-01   1.321094849310613E-01
   1.338381200183569E-01   1.355893740664833E-01   1.373635430415428E-01
   1.391609267823148E-01   1.409818290509295E-01   1.428265575842042E-01
   1.446954241456516E-01   1.465887445781688E-01   1.485068388574151E-01
   1.504500311458889E-01   1.524186498477120E-01   1.544130276641305E-01
   1.564335016497422E-01   1.584804132694595E-01   1.605541084562181E-01
   1.626549376694401E-01   1.647832559542627E-01   1.669394230015420E-01
   1.691238032086403E-01   1.713367657410118E-01   1.735786845945916E-01
   1.758499386590019E-01   1.781509117815855E-01   1.804819928322766E-01
   1.828435757693210E-01   1.852360597058557E-01   1.876598489773605E-01
   1.901153532099911E-01   1.926029873898071E-01   1.951231719329057E-01
   1.976763327564730E-01   2.002629013507649E-01   2.028833148520302E-01
   2.055380161163874E-01   2.082274537946686E-01   2.109520824082430E-01
   2.137123624258304E-01   2.165087603413238E-01   2.193417487526267E-01
   2.222118064415234E-01   2.251194184545943E-01   2.280650761851900E-01
   2.310492774564779E-01   2.340725266055757E-01   2.371353345687850E-01
   2.402382189679415E-01   2.433817041978938E-01   2.465663215151275E-01
   2.497926091275490E-01   2.530611122854436E-01   2.563723833736244E-01
   2.597269820047864E-01   2.631254751140825E-01   2.665684370549375E-01
   2.700564496961130E-01   2.735901025200476E-01   2.771699927224789E-01
   2.807967253133718E-01   2.844709132191660E-01   2.881931773863626E-01
   2.919641468864650E-01   2.957844590222942E-01   2.996547594356939E-01
   3.035757022166454E-01   3.075479500138111E-01   3.115721741465230E-01
   3.156490547182376E-01   3.197792807314748E-01   3.239635502042613E-01
   3.282025702880969E-01   3.324970573874651E-01   3.368477372809075E-01
   3.412553452436800E-01   3.457206261720193E-01   3.502443347090303E-01
   3.548272353722225E-01   3.594701026827159E-01   3.641737212961362E-01
   3.689388861352242E-01   3.737664025241793E-01   3.786570863247611E-01
   3.836117640741724E-01   3.886312731247453E-01   3.937164617854564E-01
   3.988681894652924E-01   4.040873268184929E-01   4.093747558916928E-01
   4.147313702729897E-01   4.201580752429637E-01   4.256557879276713E-01
   4.312254374536399E-01   4.368679651048964E-01   4.425843244820436E-01
   4.483754816634219E-01   4.542424153683782E-01   4.601861171226728E-01
   4.662075914260485E-01   4.723078559219944E-01   4.784879415697295E-01
   4.847488928184375E-01   4.910917677837810E-01   4.975176384267259E-01
   5.040275907347052E-01   5.106227249051528E-01   5.173041555314410E-01
   5.240730117912480E-01   5.309304376373921E-01   5.378775919911637E-01
   5.449156489381816E-01   5.520457979268220E-01   5.592692439692344E-01
   5.665872078449925E-01   5.740009263074087E-01   5.815116522925488E-01
   5.891206551309801E-01   5.968292207622928E-01   6.046386519524257E-01
   6.125502685138369E-01   6.205654075285559E-01   6.286854235741528E-01
   6.369116889526660E-01   6.452455939225237E-01   6.536885469335011E-01
   6.622419748647523E-01   6.709073232659556E-01   6.796860566016163E-01
   6.885796584985602E-01   6.975896319966763E-01   7.067174998029310E-01
   7.159648045487081E-01   7.253331090505196E-01   7.348239965741236E-01
   7.444390711021008E-01   7.541799576049313E-01   7.640483023156183E-01
   7.740457730079054E-01   7.841740592781347E-01   7.944348728307922E-01
   8.048299477677897E-01   8.153610408815334E-01   8.260299319518242E-01
   8.368384240466459E-01   8.477883438268877E-01   8.588815418550564E-01
   8.701198929080182E-01   8.815052962938508E-01   8.930396761728250E-01
   9.047249818825932E-01   9.165631882676326E-01   9.285562960129983E-01
   9.407063319824439E-01   9.530153495609667E-01   9.654854290018341E-01
   9.781186777781514E-01   9.909172309390303E-01   1.003883251470417E+00
   1.017018930660641E+00   1.030326488470750E+00   1.043808173909688E+00
   1.057466265414381E+00   1.071303071234801E+00   1.085320929824066E+00
   1.099522210233638E+00   1.113909312513710E+00   1.128484668118808E+00
   1.143250740318720E+00   1.158210024614794E+00   1.173365049161680E+00
   1.188718375194597E+00   1.204272597462186E+00   1.220030344665031E+00
   1.235994279899915E+00   1.252167101109888E+00   1.268551541540228E+00
   1.285150370200363E+00   1.301966392331844E+00   1.319002449882435E+00
   1.336261421986410E+00   1.353746225451132E+00   1.371459815250005E+00
   1.389405185021860E+00   1.407585367576902E+00   1.426003435409253E+00
   1.444662501216216E+00   1.463565718424320E+00   1.482716281722265E+00
   1.502117427600831E+00   1.521772434899845E+00   1.541684625362323E+00
   1.561857364195846E+00   1.582294060641290E+00   1.602998168548995E+00
   1.623973186962475E+00   1.645222660709766E+00   1.666750181002505E+00
   1.688559386042861E+00   1.710653961638392E+00   1.733037641824965E+00
   1.755714209497801E+00   1.778687497050812E+00   1.801961387024273E+00
   1.825539812760983E+00   1.849426759071011E+00   1.873626262905137E+00
   1.898142414037105E+00   1.922979355754808E+00   1.948141285560511E+00
   1.973632455880239E+00   1.999457174782445E+00   2.025619806706092E+00
   2.052124773198244E+00   2.078976553661321E+00   2.106179686110132E+00
   2.133738767938808E+00   2.161658456697769E+00   2.189943470880873E+00
   2.218598590722829E+00   2.247628659007097E+00   2.277038581884310E+00
   2.306833329701434E+00   2.337017937841764E+00   2.367597507575918E+00
   2.398577206923963E+00   2.429962271528824E+00   2.461758005541120E+00
   2.493969782515573E+00   2.526603046319161E+00   2.559663312051137E+00
   2.593156166975096E+00   2.627087271463236E+00   2.661462359952975E+00
   2.696287241916084E+00   2.731567802840501E+00   2.767310005224999E+00
   2.803519889586841E+00   2.840203575482671E+00   2.877367262542717E+00
   2.915017231518546E+00   2.953159845344524E+00   2.991801550213171E+00
   3.030948876664581E+00   3.070608440690100E+00   3.110786944850440E+00
   3.151491179408433E+00   3.192728023476601E+00   3.234504446179738E+00
   3.276827507832712E+00   3.319704361133677E+00   3.363142252372891E+00
   3.407148522657359E+00   3.451730609151500E+00   3.496896046334047E+00
   3.542652467271369E+00   3.589007604907515E+00   3.635969293371076E+00
   3.683545469299175E+00   3.731744173178780E+00   3.780573550705565E+00
   3.830041854160549E+00   3.880157443804757E+00   3.930928789292119E+00
   3.982364471100861E+00   4.034473181983631E+00   4.087263728436594E+00
   4.140745032187746E+00   4.194926131704711E+00   4.249816183722264E+00
   4.305424464789839E+00   4.361760372839291E+00   4.418833428773172E+00
   4.476653278073759E+00   4.535229692433210E+00   4.594572571404965E+00
   4.654691944076816E+00   4.715597970765834E+00   4.777300944735488E+00
   4.839811293935243E+00   4.903139582762892E+00   4.967296513849973E+00
   5.032292929870542E+00   5.098139815373604E+00   5.164848298639528E+00
   5.232429653560763E+00   5.300895301547136E+00   5.370256813456116E+00
   5.440525911548300E+00   5.511714471468514E+00   5.583834524252829E+00
   5.656898258361799E+00   5.730918021740399E+00   5.805906323904812E+00
   5.881875838056582E+00   5.958839403224419E+00   6.036810026434013E+00
   6.115800884906268E+00   6.195825328284270E+00   6.276896880889415E+00
   6.359029244007052E+00   6.442236298202031E+00   6.526532105664552E+00
   6.611930912586708E+00   6.698447151570127E+00   6.786095444065112E+00
   6.874890602841709E+00   6.964847634493090E+00   7.055981741971725E+00
   7.148308327158659E+00   7.241842993466549E+00   7.336601548476621E+00
   7.432600006610207E+00   7.529854591835218E+00   7.628381740408031E+00
   7.728198103651259E+00   7.829320550767863E+00   7.931766171692089E+00
   8.035552279977701E+00   8.140696415724019E+00   8.247216348540242E+00
   8.355130080548539E+00   8.464455849426468E+00   8.575212131489172E+00
   8.687417644811934E+00   8.801091352393563E+00   8.916252465361211E+00
   9.032920446217032E+00   9.151115012127491E+00   9.270856138255537E+00
   9.392164061136482E+00   9.515059282098019E+00   9.639562570724991E+00
   9.765694968369507E+00   9.893477791706976E+00   1.002293263633868E+01
   1.015408138044147E+01   1.028694618846525E+01   1.042154951487882E+01
   1.055791410796469E+01   1.069606301366366E+01   1.083601957946961E+01
   1.097780745837527E+01   1.112145061286963E+01   1.126697331898771E+01
   1.141440017041318E+01   1.156375608263481E+01   1.171506629715728E+01
   1.186835638576695E+01   1.202365225485365E+01   1.218098014978888E+01
   1.234036665936134E+01   1.250183872027049E+01   1.266542362167895E+01
   1.283114900982441E+01   1.299904289269191E+01   1.316913364474725E+01
   1.334145001173237E+01   1.351602111552341E+01   1.369287645905242E+01
   1.387204593129337E+01   1.405355981231352E+01   1.423744877839081E+01
   1.442374390719813E+01   1.461247668305567E+01   1.480367900225176E+01
   1.499738317843341E+01   1.519362194806745E+01   1.539242847597299E+01
   1.559383636092645E+01   1.579787964133974E+01   1.600459280101289E+01
   1.621401077496190E+01   1.642616895532280E+01   1.664110319733301E+01
   1.685884982539100E+01   1.707944563919519E+01   1.730292791996312E+01
   1.752933443673218E+01   1.775870345274258E+01   1.799107373190390E+01
   1.822648454534641E+01   1.846497567805788E+01   1.870658743560736E+01
   1.895136065095696E+01   1.919933669136264E+01   1.945055746536543E+01
   1.970506542987408E+01   1.996290359734034E+01   2.022411554302820E+01
   2.048874541237817E+01   2.075683792846804E+01   2.102843839957109E+01
   2.130359272681340E+01   2.158234741193115E+01   2.186474956512958E+01
   2.215084691304475E+01   2.244068780680941E+01   2.273432123022440E+01
   2.303179680803717E+01   2.333316481432842E+01   2.363847618100846E+01
   2.394778250642497E+01   2.426113606408309E+01   2.457858981147990E+01
   2.490019739905427E+01   2.522601317925396E+01   2.555609221572129E+01
   2.589049029259905E+01   2.622926392395814E+01   2.657247036334855E+01
   2.692016761347542E+01   2.727241443600158E+01   2.762927036147840E+01
   2.799079569940665E+01   2.835705154842895E+01   2.872809980665541E+01
   2.910400318212485E+01   2.948482520340242E+01   2.987063023031609E+01
   3.026148346483368E+01   3.065745096208208E+01   3.105859964151078E+01
   3.146499729820136E+01   3.187671261432508E+01   3.229381517075027E+01
   3.271637545880173E+01   3.314446489217386E+01   3.357815581899980E+01
   3.401752153407842E+01   3.446263629126128E+01   3.491357531600178E+01
   3.537041481806836E+01   3.583323200442428E+01   3.630210509227543E+01
   3.677711332228971E+01   3.725833697198853E+01   3.774585736931407E+01
   3.823975690637382E+01   3.874011905336506E+01   3.924702837268156E+01
   3.976057053320476E+01   4.028083232478208E+01   4.080790167289456E+01
   4.134186765351651E+01   4.188282050816956E+01   4.243085165917365E+01
   4.298605372509767E+01   4.354852053641220E+01   4.411834715134707E+01
   4.469562987195646E+01   4.528046626039421E+01   4.587295515540178E+01
   4.647319668901268E+01   4.708129230347472E+01   4.769734476839409E+01
   4.832145819810361E+01   4.895373806925835E+01   4.959429123866143E+01
   5.024322596132306E+01   5.090065190875589E+01   5.156668018750977E+01
   5.224142335794903E+01   5.292499545327542E+01   5.361751199880003E+01
   5.431909003146730E+01   5.502984811963457E+01   5.574990638311043E+01
   5.647938651345520E+01   5.721841179454725E+01   5.796710712341784E+01
   5.872559903135960E+01   5.949401570531028E+01   6.027248700951666E+01
   6.106114450748199E+01   6.186012148420053E+01   6.266955296868297E+01
   6.348957575677672E+01   6.432032843428469E+01   6.516195140038666E+01
   6.601458689136705E+01   6.687837900465317E+01   6.775347372316809E+01
   6.864001894000207E+01   6.953816448340676E+01   7.044806214211673E+01
   7.136986569100192E+01   7.230373091705619E+01   7.324981564572519E+01
   7.420827976757997E+01   7.517928526533835E+01   7.616299624124055E+01
   7.715957894478284E+01   7.816920180081402E+01   7.919203543799982E+01
   8.022825271765934E+01   8.127802876297916E+01   8.234154098860949E+01
   8.341896913064772E+01   8.451049527701426E+01   8.561630389822575E+01
   8.673658187857116E+01   8.787151854769547E+01   8.902130571259707E+01
   9.018613769004341E+01   9.136621133941127E+01   9.256172609595573E+01
   9.377288400451630E+01   9.499988975366216E+01   9.624295071028531E+01
   9.750227695464604E+01   9.877808131587695E+01   1.000705794079516E+02