<UPF version="2.0.1">
  <PP_INFO>
    Generated by new atomic code, or converted to UPF format
    Author: 
    Generation date: 
    Pseudopotential type: NC
    Element: Ti
    Functional: SLA  PW   PBE  PBE
    Suggested minimum cutoff for wavefunctions:   0. Ry
    Suggested minimum cutoff for charge density:   0. Ry
    The Pseudo was generated with a Non-Relativistic Calculation
    L component and cutoff radius for Local Potential:  0   0.0000
    Valence configuration: 
    nl pn  l   occ       Rcut    Rcut US       E pseu
    S   1  0  2.00      0.000      0.000     0.000000
    P   2  1  6.00      0.000      0.000     0.000000
    D   3  2  2.00      0.000      0.000     0.000000
    Generation configuration: not available.
  </PP_INFO>
    <!-- END OF HUMAN READABLE SECTION -->
  <PP_HEADER generated="Generated by new atomic code, or converted to UPF format" author="" date="" comment="" element="Ti" pseudo_type="NC" relativistic="no" is_ultrasoft="false" is_paw="false" is_coulomb="false" has_so="false" has_wfc="false" has_gipaw="false" paw_as_gipaw="false" core_correction="false" with_metagga_info="false" functional="SLA  PW   PBE  PBE" z_valence="12.000000000000000" total_psenergy="0.0000000000000000" wfc_cutoff="0.0000000000000000" rho_cutoff="0.0000000000000000" l_max="2" l_max_rho="0" l_local="0" mesh_size="1156" number_of_wfc="3" number_of_proj="2"/>
  <PP_MESH mesh="1156" dx="1.2999999999999999E-002" xmin="-7.1496454030706387" rmax="118.42882456885495" zmesh="22.000000000000000">
    <PP_R>
   3.568829277518042E-05   3.615526935244168E-05   3.662835625627655E-05
   3.710763343949776E-05   3.759318190109000E-05   3.808508369989897E-05
   3.858342196849938E-05   3.908828092724474E-05   3.959974589850069E-05
   4.011790332106471E-05   4.064284076477449E-05   4.117464694530741E-05
   4.171341173917371E-05   4.225922619890591E-05   4.281218256844680E-05
   4.337237429873886E-05   4.393989606351785E-05   4.451484377531276E-05
   4.509731460165536E-05   4.568740698150160E-05   4.628522064186816E-05
   4.689085661468650E-05   4.750441725387750E-05   4.812600625264955E-05
   4.875572866102282E-05   4.939369090358314E-05   5.004000079746794E-05
   5.069476757058754E-05   5.135810188008503E-05   5.203011583103750E-05
   5.271092299540213E-05   5.340063843121007E-05   5.409937870201164E-05
   5.480726189657553E-05   5.552440764884654E-05   5.625093715816367E-05
   5.698697320974319E-05   5.773264019542967E-05   5.848806413471844E-05
   5.925337269605324E-05   6.002869521840248E-05   6.081416273311768E-05
   6.160990798607837E-05   6.241606546012625E-05   6.323277139779316E-05
   6.406016382432641E-05   6.489838257101537E-05   6.574756929882324E-05
   6.660786752232821E-05   6.747942263397759E-05   6.836238192865975E-05
   6.925689462859687E-05   7.016311190856434E-05   7.108118692143934E-05
   7.201127482408416E-05   7.295353280356806E-05   7.390812010373223E-05
   7.487519805210240E-05   7.585493008715367E-05   7.684748178593167E-05
   7.785302089203592E-05   7.887171734396865E-05   7.990374330385484E-05
   8.094927318653801E-05   8.200848368905680E-05   8.308155382050718E-05
   8.416866493229535E-05   8.527000074878664E-05   8.638574739835541E-05
   8.751609344484088E-05   8.866122991941528E-05   8.982135035286836E-05
   9.099665080831457E-05   9.218732991432823E-05   9.339358889851218E-05
   9.461563162150574E-05   9.585366461143779E-05   9.710789709883005E-05
   9.837854105195824E-05   9.966581121267465E-05   1.009699251327003E-04
   1.022911032103915E-04   1.036295687279880E-04   1.049855478893480E-04
   1.063592698581770E-04   1.077509667967573E-04   1.091608739051841E-04
   1.105892294611144E-04   1.120362748600365E-04   1.135022546560672E-04
   1.149874166032811E-04   1.164920116975822E-04   1.180162942191224E-04
   1.195605217752758E-04   1.211249553441749E-04   1.227098593188163E-04
   1.243155015517438E-04   1.259421534003165E-04   1.275900897725684E-04
   1.292595891736686E-04   1.309509337529894E-04   1.326644093517904E-04
   1.344003055515260E-04   1.361589157227855E-04   1.379405370748736E-04
   1.397454707060393E-04   1.415740216543619E-04   1.434264989493040E-04
   1.453032156639374E-04   1.472044889678537E-04   1.491306401807666E-04
   1.510819948268153E-04   1.530588826895797E-04   1.550616378678134E-04
   1.570905988319085E-04   1.591461084810970E-04   1.612285142014019E-04
   1.633381679243464E-04   1.654754261864307E-04   1.676406501893880E-04
   1.698342058612283E-04   1.720564639180809E-04   1.743077999268468E-04
   1.765885943686699E-04   1.788992327032391E-04   1.812401054339326E-04
   1.836116081738134E-04   1.860141417124890E-04   1.884481120838456E-04
   1.909139306346692E-04   1.934120140941638E-04   1.959427846443794E-04
   1.985066699915628E-04   2.011041034384397E-04   2.037355239574451E-04
   2.064013762649094E-04   2.091021108962178E-04   2.118381842819509E-04
   2.146100588250230E-04   2.174182029788293E-04   2.202630913264153E-04
   2.231452046606831E-04   2.260650300656456E-04   2.290230609987458E-04
   2.320197973742519E-04   2.350557456477437E-04   2.381314189017055E-04
   2.412473369322374E-04   2.444040263369031E-04   2.476020206037248E-04
   2.508418602013452E-04   2.541240926703676E-04   2.574492727158912E-04
   2.608179623012579E-04   2.642307307430256E-04   2.676881548071835E-04
   2.711908188066275E-04   2.747393146999103E-04   2.783342421912834E-04
   2.819762088320493E-04   2.856658301232388E-04   2.894037296196311E-04
   2.931905390351380E-04   2.970268983495637E-04   3.009134559167635E-04
   3.048508685742161E-04   3.088398017540323E-04   3.128809295954135E-04
   3.169749350585833E-04   3.211225100402089E-04   3.253243554903340E-04
   3.295811815308404E-04   3.338937075754606E-04   3.382626624513604E-04
   3.426887845223123E-04   3.471728218134810E-04   3.517155321378410E-04
   3.563176832242493E-04   3.609800528471933E-04   3.657034289582357E-04
   3.704886098191816E-04   3.753364041369856E-04   3.802476312004261E-04
   3.852231210185653E-04   3.902637144610249E-04   3.953702634000938E-04
   4.005436308546968E-04   4.057846911362468E-04   4.110943299964057E-04
   4.164734447767782E-04   4.219229445605652E-04   4.274437503262002E-04
   4.330367951029979E-04   4.387030241288375E-04   4.444433950099103E-04
   4.502588778825582E-04   4.561504555772285E-04   4.621191237845729E-04
   4.681658912237252E-04   4.742917798127745E-04   4.804978248414728E-04
   4.867850751462002E-04   4.931545932872230E-04   4.996074557282669E-04
   5.061447530184429E-04   5.127675899765525E-04   5.194770858778047E-04
   5.262743746429759E-04   5.331606050300457E-04   5.401369408283394E-04
   5.472045610552113E-04   5.543646601553012E-04   5.616184482023990E-04
   5.689671511039492E-04   5.764120108082333E-04   5.839542855142599E-04
   5.915952498844060E-04   5.993361952598366E-04   6.071784298787447E-04
   6.151232790974452E-04   6.231720856143661E-04   6.313262096969656E-04
   6.395870294116214E-04   6.479559408565268E-04   6.564343583976347E-04
   6.650237149076892E-04   6.737254620083837E-04   6.825410703156895E-04
   6.914720296883924E-04   7.005198494798830E-04   7.096860587932406E-04
   7.189722067396559E-04   7.283798627002341E-04   7.379106165912226E-04
   7.475660791327137E-04   7.573478821208578E-04   7.672576787036421E-04
   7.772971436602744E-04   7.874679736842275E-04   7.977718876699832E-04
   8.082106270035292E-04   8.187859558566587E-04   8.294996614851176E-04
   8.403535545306568E-04   8.513494693270344E-04   8.624892642100229E-04
   8.737748218314704E-04   8.852080494774760E-04   8.967908793907242E-04
   9.085252690970383E-04   9.204132017362082E-04   9.324566863971438E-04
   9.446577584574174E-04   9.570184799272473E-04   9.695409397979818E-04
   9.822272543951430E-04   9.950795677360928E-04   1.008100051892376E-03
   1.021290907356804E-03   1.034654363415347E-03   1.048192678523885E-03
   1.061908140689893E-03   1.075803067859121E-03   1.089879808307334E-03
   1.104140741037170E-03   1.118588276180203E-03   1.133224855404258E-03
   1.148052952326062E-03   1.163075072929286E-03   1.178293755988066E-03
   1.193711573496061E-03   1.209331131101126E-03   1.225155068545672E-03
   1.241186060112790E-03   1.257426815078210E-03   1.273880078168176E-03
   1.290548630023309E-03   1.307435287668548E-03   1.324542904989225E-03
   1.341874373213385E-03   1.359432621400409E-03   1.377220616936032E-03
   1.395241366033834E-03   1.413497914243306E-03   1.431993346964546E-03
   1.450730789969706E-03   1.469713409931252E-03   1.488944414957134E-03
   1.508427055132977E-03   1.528164623071340E-03   1.548160454468181E-03
   1.568417928666599E-03   1.588940469227948E-03   1.609731544510429E-03
   1.630794668255248E-03   1.652133400180453E-03   1.673751346582524E-03
   1.695652160945858E-03   1.717839544560208E-03   1.740317247146214E-03
   1.763089067489110E-03   1.786158854080735E-03   1.809530505769930E-03
   1.833207972421458E-03   1.857195255583538E-03   1.881496409164115E-03
   1.906115540115984E-03   1.931056809130873E-03   1.956324431342607E-03
   1.981922677039478E-03   2.007855872385939E-03   2.034128400153723E-03
   2.060744700462555E-03   2.087709271530537E-03   2.115026670434358E-03
   2.142701513879450E-03   2.170738478980225E-03   2.199142304050515E-03
   2.227917789404360E-03   2.257069798167277E-03   2.286603257098127E-03
   2.316523157421764E-03   2.346834555672554E-03   2.377542574548945E-03
   2.408652403779217E-03   2.440169300998554E-03   2.472098592637598E-03
   2.504445674822631E-03   2.537216014287535E-03   2.570415149297671E-03
   2.604048690585875E-03   2.638122322300675E-03   2.672641802966931E-03
   2.707612966459034E-03   2.743041722986850E-03   2.778934060094555E-03
   2.815296043672548E-03   2.852133818982601E-03   2.889453611696414E-03
   2.927261728947783E-03   2.965564560398510E-03   3.004368579318275E-03
   3.043680343678632E-03   3.083506497261325E-03   3.123853770781099E-03
   3.164728983023210E-03   3.206139041995814E-03   3.248090946097435E-03
   3.290591785299717E-03   3.333648742345641E-03   3.377269093963428E-03
   3.421460212096321E-03   3.466229565148466E-03   3.511584719247082E-03
   3.557533339521163E-03   3.604083191396899E-03   3.651242141910045E-03
   3.699018161035482E-03   3.747419323034157E-03   3.796453807817644E-03
   3.846129902330580E-03   3.896456001951171E-03   3.947440611910034E-03
   3.999092348727600E-03   4.051419941670332E-03   4.104432234225974E-03
   4.158138185598145E-03   4.212546872220454E-03   4.267667489290436E-03
   4.323509352323572E-03   4.380081898727619E-03   4.437394689397571E-03
   4.495457410331459E-03   4.554279874267321E-03   4.613872022341557E-03
   4.674243925769031E-03   4.735405787545111E-03   4.797367944170011E-03
   4.860140867395676E-03   4.923735165995535E-03   4.988161587557414E-03
   5.053431020299898E-03   5.119554494912471E-03   5.186543186419715E-03
   5.254408416069938E-03   5.323161653248478E-03   5.392814517416056E-03
   5.463378780072498E-03   5.534866366746142E-03   5.607289359009283E-03
   5.680659996519988E-03   5.754990679090632E-03   5.830293968783470E-03
   5.906582592033696E-03   5.983869441800214E-03   6.062167579744584E-03
   6.141490238438477E-03   6.221850823600006E-03   6.303262916359332E-03
   6.385740275553897E-03   6.469296840053715E-03   6.553946731117050E-03
   6.639704254776971E-03   6.726583904259087E-03   6.814600362430944E-03
   6.903768504283461E-03   6.994103399444836E-03   7.085620314727361E-03
   7.178334716707538E-03   7.272262274339975E-03   7.367418861605457E-03
   7.463820560193720E-03   7.561483662221271E-03   7.660424672984798E-03
   7.760660313750614E-03   7.862207524580575E-03   7.965083467195004E-03
   8.069305527873058E-03   8.174891320391058E-03   8.281858688999231E-03
   8.390225711437467E-03   8.500010701990485E-03   8.611232214582988E-03
   8.723909045915322E-03   8.838060238640163E-03   8.953705084580772E-03
   9.070863127991359E-03   9.189554168860116E-03   9.309798266255430E-03
   9.431615741715964E-03   9.555027182685005E-03   9.680053445989809E-03
   9.806715661366448E-03   9.935035235030788E-03   1.006503385329620E-02
   1.019673348623856E-02   1.033015639140933E-02   1.046532511759700E-02
   1.060226250863804E-02   1.074099170727744E-02   1.088153615907998E-02
   1.102391961639251E-02   1.116816614235820E-02   1.131430011498327E-02
   1.146234623125689E-02   1.161232951132511E-02   1.176427530271919E-02
   1.191820928463955E-02   1.207415747229551E-02   1.223214622130194E-02
   1.239220223213346E-02   1.255435255463686E-02   1.271862459260256E-02
   1.288504610839598E-02   1.305364522764937E-02   1.322445044401517E-02
   1.339749062398147E-02   1.357279501175056E-02   1.375039323418119E-02
   1.393031530579567E-02   1.411259163385232E-02   1.429725302348443E-02
   1.448433068290635E-02   1.467385622868781E-02   1.486586169109710E-02
   1.506037951951437E-02   1.525744258791560E-02   1.545708420042838E-02
   1.565933809696038E-02   1.586423845890152E-02   1.607181991490062E-02
   1.628211754671784E-02   1.649516689515347E-02   1.671100396605447E-02
   1.692966523639954E-02   1.715118766046379E-02   1.737560867606416E-02
   1.760296621088640E-02   1.783329868889505E-02   1.806664503682710E-02
   1.830304469077074E-02   1.854253760283014E-02   1.878516424787745E-02
   1.903096563039315E-02   1.927998329139593E-02   1.953225931546318E-02
   1.978783633784341E-02   2.004675755166170E-02   2.030906671521945E-02
   2.057480815938961E-02   2.084402679510876E-02   2.111676812096706E-02
   2.139307823089776E-02   2.167300382196707E-02   2.195659220226615E-02
   2.224389129890622E-02   2.253494966611842E-02   2.282981649345955E-02
   2.312854161412525E-02   2.343117551337192E-02   2.373776933704880E-02
   2.404837490024183E-02   2.436304469603045E-02   2.468183190435911E-02
   2.500479040102475E-02   2.533197476678199E-02   2.566344029656736E-02
   2.599924300884432E-02   2.633943965507052E-02   2.668408772928881E-02
   2.703324547784406E-02   2.738697190922681E-02   2.774532680404586E-02
   2.810837072513136E-02   2.847616502777004E-02   2.884877187007444E-02
   2.922625422348776E-02   2.960867588342618E-02   2.999610148006039E-02
   3.038859648923835E-02   3.078622724355079E-02   3.118906094354160E-02
   3.159716566906484E-02   3.201061039079046E-02   3.242946498186049E-02
   3.285380022969770E-02   3.328368784796899E-02   3.371920048870496E-02
   3.416041175457846E-02   3.460739621134359E-02   3.506022940043738E-02
   3.551898785174658E-02   3.598374909654135E-02   3.645459168057825E-02
   3.693159517737461E-02   3.741484020165675E-02   3.790440842298388E-02
   3.840038257955065E-02   3.890284649217000E-02   3.941188507843906E-02
   3.992758436709047E-02   4.045003151253143E-02   4.097931480957300E-02
   4.151552370835213E-02   4.205874882944896E-02   4.260908197920182E-02
   4.316661616522291E-02   4.373144561211664E-02   4.430366577740389E-02
   4.488337336765453E-02   4.547066635483108E-02   4.606564399284618E-02
   4.666840683433676E-02   4.727905674765769E-02   4.789769693409768E-02
   4.852443194532068E-02   4.915936770103529E-02   4.980261150689542E-02
   5.045427207263524E-02   5.111445953044139E-02   5.178328545356554E-02
   5.246086287518058E-02   5.314730630748350E-02   5.384273176104806E-02
   5.454725676443115E-02   5.526100038403518E-02   5.598408324423065E-02
   5.671662754774191E-02   5.745875709629980E-02   5.821059731156437E-02
   5.897227525632145E-02   5.974391965595662E-02   6.052566092020990E-02
   6.131763116521562E-02   6.211996423583017E-02   6.293279572825208E-02
   6.375626301293823E-02   6.459050525781962E-02   6.543566345182124E-02
   6.629188042868943E-02   6.715930089113122E-02   6.803807143526917E-02
   6.892834057541687E-02   6.983025876917795E-02   7.074397844287379E-02
   7.166965401730398E-02   7.260744193384382E-02   7.355750068088319E-02
   7.451999082061161E-02   7.549507501615359E-02   7.648291805905878E-02
   7.748368689715271E-02   7.849755066275094E-02   7.952468070124291E-02
   8.056525060004985E-02   8.161943621796128E-02   8.268741571485570E-02
   8.376936958180997E-02   8.486548067160285E-02   8.597593422961722E-02
   8.710091792514742E-02   8.824062188311560E-02   8.939523871620324E-02
   9.056496355740322E-02   9.174999409299778E-02   9.295053059596792E-02
   9.416677595984004E-02   9.539893573297548E-02   9.664721815330841E-02
   9.791183418353898E-02   9.919299754678622E-02   1.004909247627078E-01
   1.018058351840923E-01   1.031379510339308E-01   1.044874974429722E-01
   1.058547024877719E-01   1.072397972292365E-01   1.086430157516738E-01
   1.100645952023541E-01   1.115047758315880E-01   1.129638010333298E-01
   1.144419173863108E-01   1.159393746957129E-01   1.174564260353855E-01
   1.189933277906157E-01   1.205503397014582E-01   1.221277249066317E-01
   1.237257499879903E-01   1.253446850155760E-01   1.269848035932619E-01
   1.286463829049911E-01   1.303297037616221E-01   1.320350506483862E-01
   1.337627117729659E-01   1.355129791142036E-01   1.372861484714455E-01
   1.390825195145334E-01   1.409023958344492E-01   1.427460849946225E-01
   1.446138985829092E-01   1.465061522642514E-01   1.484231658340251E-01
   1.503652632720863E-01   1.523327727975243E-01   1.543260269241318E-01
   1.563453625166004E-01   1.583911208474514E-01   1.604636476547118E-01
   1.625632932003448E-01   1.646904123294451E-01   1.668453645302081E-01
   1.690285139946849E-01   1.712402296803310E-01   1.734808853723613E-01
   1.757508597469210E-01   1.780505364350818E-01   1.803803040876780E-01
   1.827405564409873E-01   1.851316923832753E-01   1.875541160222074E-01
   1.900082367531443E-01   1.924944693283304E-01   1.950132339269884E-01
   1.975649562263304E-01   2.001500674734985E-01   2.027690045584460E-01
   2.054222100877738E-01   2.081101324595312E-01   2.108332259389964E-01
   2.135919507354488E-01   2.163867730799451E-01   2.192181653041132E-01
   2.220866059199783E-01   2.249925797008314E-01   2.279365777631584E-01
   2.309190976496382E-01   2.339406434132305E-01   2.370017257023610E-01
   2.401028618472222E-01   2.432445759472037E-01   2.464273989594658E-01
   2.496518687886732E-01   2.529185303779014E-01   2.562279358007342E-01
   2.595806443545644E-01   2.629772226551176E-01   2.664182447322108E-01
   2.699042921267650E-01   2.734359539890869E-01   2.770138271784369E-01
   2.806385163638998E-01   2.843106341265750E-01   2.880308010631050E-01
   2.917996458905552E-01   2.956178055526724E-01   2.994859253275270E-01
   3.034046589365673E-01   3.073746686551004E-01   3.113966254242177E-01
   3.154712089641857E-01   3.195991078893207E-01   3.237810198243657E-01
   3.280176515223913E-01   3.323097189842378E-01   3.366579475795220E-01
   3.410630721692256E-01   3.455258372298889E-01   3.500469969794290E-01
   3.546273155046043E-01   3.592675668901472E-01   3.639685353495867E-01
   3.687310153577801E-01   3.735558117851843E-01   3.784437400338793E-01
   3.833956261753727E-01   3.884123070902084E-01   3.934946306094011E-01
   3.986434556577222E-01   4.038596523988595E-01   4.091441023824771E-01
   4.144976986931999E-01   4.199213461015466E-01   4.254159612168378E-01
   4.309824726421058E-01   4.366218211310303E-01   4.423349597469281E-01
   4.481228540238231E-01   4.539864821296238E-01   4.599268350314372E-01
   4.659449166630403E-01   4.720417440945535E-01   4.782183477043236E-01
   4.844757713530617E-01   4.908150725602577E-01   4.972373226829038E-01
   5.037436070965562E-01   5.103350253787663E-01   5.170126914949124E-01
   5.237777339864611E-01   5.306312961616952E-01   5.375745362889347E-01
   5.446086277922862E-01   5.517347594499559E-01   5.589541355951547E-01
   5.662679763196340E-01   5.736775176798840E-01   5.811840119060308E-01
   5.887887276134629E-01   5.964929500172359E-01   6.042979811492726E-01
   6.122051400784112E-01   6.202157631333306E-01   6.283312041283929E-01
   6.365528345924421E-01   6.448820440005947E-01   6.533202400090650E-01
   6.618688486930622E-01   6.705293147878004E-01   6.793031019326624E-01
   6.881916929185582E-01   6.971965899385200E-01   7.063193148415766E-01
   7.155614093899499E-01   7.249244355196155E-01   7.344099756042755E-01
   7.440196327227778E-01   7.537550309300493E-01   7.636178155315577E-01
   7.736096533613753E-01   7.837322330638767E-01   7.939872653791246E-01
   8.043764834319880E-01   8.149016430250452E-01   8.255645229353182E-01
   8.363669252148910E-01   8.473106754954592E-01   8.583976232968676E-01
   8.696296423396824E-01   8.810086308618552E-01   8.925365119395298E-01
   9.042152338120452E-01   9.160467702111944E-01   9.280331206947910E-01
   9.401763109845920E-01   9.524783933086600E-01   9.649414467481879E-01
   9.775675775888701E-01   9.903589196768704E-01   1.003317634779446E+00
   1.016445912950293E+00   1.029745972899667E+00   1.043220062369357E+00
   1.056870458512551E+00   1.070699468278689E+00   1.084709428803333E+00
   1.098902707803159E+00   1.113281703976099E+00   1.127848847406728E+00
   1.142606599976959E+00   1.157557455782100E+00   1.172703941552369E+00
   1.188048617079906E+00   1.203594075651402E+00   1.219342944486352E+00
   1.235297885181075E+00   1.251461594158522E+00   1.267836803123982E+00
   1.284426279526743E+00   1.301232827027804E+00   1.318259285973692E+00
   1.335508533876494E+00   1.352983485900161E+00   1.370687095353177E+00
   1.388622354187675E+00   1.406792293505087E+00   1.425199984068403E+00
   1.443848536821140E+00   1.462741103413099E+00   1.481880876733002E+00
   1.501271091448091E+00   1.520915024550805E+00   1.540815995912593E+00
   1.560977368844982E+00   1.581402550667982E+00   1.602094993285936E+00
   1.623058193770897E+00   1.644295694953640E+00   1.665811086022414E+00
   1.687608003129517E+00   1.709690130005818E+00   1.732061198583319E+00
   1.754724989625854E+00   1.777685333368050E+00   1.800946110162649E+00
   1.824511251136292E+00   1.848384738853889E+00   1.872570607991691E+00
   1.897072946019139E+00   1.921895893889682E+00   1.947043646740590E+00
   1.972520454601950E+00   1.998330623114926E+00   2.024478514259430E+00
   2.050968547091298E+00   2.077805198489128E+00   2.104993003910880E+00
   2.132536558160380E+00   2.160440516163852E+00   2.188709593756613E+00
   2.217348568480060E+00   2.246362280389084E+00   2.275755632870053E+00
   2.305533593469497E+00   2.335701194733629E+00   2.366263535058871E+00
   2.397225779553469E+00   2.428593160910441E+00   2.460370980291893E+00
   2.492564608224936E+00   2.525179485509314E+00   2.558221124136914E+00
   2.591695108223307E+00   2.625607094951475E+00   2.659962815527888E+00
   2.694768076151095E+00   2.730028758992980E+00   2.765750823192867E+00
   2.801940305864629E+00   2.838603323116970E+00   2.875746071087069E+00
   2.913374826987735E+00   2.951495950168276E+00   2.990115883189247E+00
   3.029241152911237E+00   3.068878371597955E+00   3.109034238033702E+00
   3.149715538655478E+00   3.190929148699914E+00   3.232682033365201E+00
   3.274981248988222E+00   3.317833944237095E+00   3.361247361319309E+00
   3.405228837205681E+00   3.449785804870314E+00   3.494925794546794E+00
   3.540656435000814E+00   3.586985454819455E+00   3.633920683717331E+00
   3.681470053859840E+00   3.729641601203704E+00   3.778443466855087E+00
   3.827883898445423E+00   3.877971251525330E+00   3.928713990976692E+00
   3.980120692443248E+00   4.032200043779899E+00   4.084960846520976E+00
   4.138412017367716E+00   4.192562589695212E+00   4.247421715079072E+00
   4.302998664842054E+00   4.359302831620948E+00   4.416343730953948E+00
   4.474131002888805E+00   4.532674413612014E+00   4.591983857099328E+00
   4.652069356787857E+00   4.712941067270058E+00   4.774609276009892E+00
   4.837084405081396E+00   4.900377012930087E+00   4.964497796157334E+00
   5.029457591328117E+00   5.095267376802431E+00   5.161938274590653E+00
   5.229481552233192E+00   5.297908624704733E+00   5.367231056343382E+00
   5.437460562805083E+00   5.508609013043581E+00   5.580688431316305E+00
   5.653710999216499E+00   5.727689057731941E+00   5.802635109330593E+00
   5.878561820073554E+00   5.955482021755656E+00   6.033408714074065E+00
   6.112355066825241E+00   6.192334422130707E+00   6.273360296691866E+00
   6.355446384074372E+00   6.438606557022363E+00   6.522854869802998E+00
   6.608205560581655E+00   6.694673053828217E+00   6.782271962754848E+00
   6.871017091785647E+00   6.960923439058644E+00   7.052006198960512E+00
   7.144280764694461E+00   7.237762730881723E+00   7.332467896197080E+00
   7.428412266038877E+00   7.525612055233974E+00   7.624083690778105E+00
   7.723843814612019E+00   7.824909286434100E+00   7.927297186549628E+00
   8.031024818757418E+00   8.136109713274193E+00   8.242569629697240E+00
   8.350422560005818E+00   8.459686731601851E+00   8.570380610390400E+00
   8.682522903900436E+00   8.796132564446479E+00   8.911228792331556E+00
   9.027831039092128E+00   9.145959010785415E+00   9.265632671319791E+00
   9.386872245828725E+00   9.509698224088867E+00   9.634131363982899E+00
   9.760192695007591E+00   9.887903521827942E+00   1.001728542787765E+01
   1.014836027900678E+01   1.028115022717714E+01   1.041567771420602E+01
   1.055196547555892E+01   1.069003654419190E+01   1.082991425444416E+01
   1.097162224598167E+01   1.111518446779227E+01   1.126062518223314E+01
   1.140796896913118E+01   1.155724072993709E+01   1.170846569193369E+01
   1.186166941249952E+01   1.201687778342798E+01   1.217411703530320E+01
   1.233341374193293E+01   1.249479482483977E+01   1.265828755781082E+01
   1.282391957150710E+01   1.299171885813313E+01   1.316171377616773E+01
   1.333393305515666E+01   1.350840580056796E+01   1.368516149871086E+01
   1.386423002171906E+01   1.404564163259914E+01   1.422942699034511E+01
   1.441561715511986E+01   1.460424359350439E+01   1.479533818381574E+01
   1.498893322149449E+01   1.518506142456278E+01   1.538375593915376E+01
   1.558505034511326E+01   1.578897866167502E+01   1.599557535320989E+01
   1.620487533505047E+01   1.641691397939185E+01   1.663172712126959E+01
   1.684935106461594E+01   1.706982258839530E+01   1.729317895281992E+01
   1.751945790564701E+01   1.774869768855816E+01   1.798093704362229E+01
   1.821621521984317E+01   1.845457197979255E+01   1.869604760633019E+01
   1.894068290941169E+01   1.918851923298555E+01   1.943959846198034E+01
   1.969396302938330E+01   1.995165592341177E+01   2.021272069477816E+01
   2.047720146405020E+01   2.074514292910738E+01   2.101659037269503E+01
   2.129158967007719E+01   2.157018729678963E+01   2.185243033649436E+01
   2.213836648893686E+01   2.242804407800744E+01   2.272151205990811E+01
   2.301882003142632E+01   2.332001823831684E+01   2.362515758379354E+01
   2.393428963713207E+01   2.424746664238524E+01   2.456474152721225E+01
   2.488616791182382E+01   2.521180011804397E+01   2.554169317849059E+01
   2.587590284587608E+01   2.621448560242967E+01   2.655749866944309E+01
   2.690500001694106E+01   2.725704837347839E+01   2.761370323606525E+01
   2.797502488022230E+01   2.834107437016736E+01   2.871191356913549E+01
   2.908760514983393E+01   2.946821260503401E+01   2.985380025830153E+01
   3.024443327486764E+01   3.064017767264193E+01   3.104110033336943E+01
   3.144726901393409E+01   3.185875235780966E+01   3.227561990666060E+01
   3.269794211209486E+01   3.312579034757034E+01   3.355923692045715E+01
   3.399835508425773E+01   3.444321905098693E+01   3.489390400371395E+01
   3.535048610926845E+01   3.581304253111301E+01   3.628165144238382E+01
   3.675639203910224E+01   3.723734455355903E+01   3.772459026787386E+01
   3.821821152773213E+01   3.871829175630170E+01   3.922491546833130E+01
   3.973816828443414E+01   4.025813694555773E+01   4.078490932764338E+01
   4.131857445647743E+01   4.185922252273684E+01   4.240694489723158E+01
   4.296183414634658E+01   4.352398404768564E+01   4.409348960592006E+01
   4.467044706884464E+01   4.525495394364384E+01   4.584710901337069E+01
   4.644701235364135E+01   4.705476534954816E+01   4.767047071279394E+01
   4.829423249905051E+01   4.892615612554445E+01   4.956634838887251E+01
   5.021491748305100E+01   5.087197301780047E+01   5.153762603707017E+01
   5.221198903780468E+01   5.289517598895616E+01   5.358730235074540E+01
   5.428848509417490E+01   5.499884272079714E+01   5.571849528274177E+01
   5.644756440300460E+01   5.718617329600220E+01   5.793444678839544E+01
   5.869251134018550E+01   5.946049506608593E+01   6.023852775717424E+01
   6.102674090282704E+01   6.182526771294208E+01   6.263424314045061E+01
   6.345380390412543E+01   6.428408851168625E+01   6.512523728320788E+01
   6.597739237483475E+01   6.684069780280555E+01   6.771529946779233E+01
   6.860134517955815E+01   6.949898468193715E+01   7.040836967814170E+01
   7.132965385640058E+01   7.226299291593267E+01   7.320854459326047E+01
   7.416646868886795E+01   7.513692709420722E+01   7.612008381905856E+01
   7.711610501924849E+01   7.812515902473061E+01   7.914741636803319E+01
   8.018304981308050E+01   8.123223438438961E+01   8.229514739665026E+01
   8.337196848469138E+01   8.446287963383973E+01   8.556806521067605E+01
   8.668771199419324E+01   8.782200920736260E+01   8.897114854911285E+01
   9.013532422672787E+01   9.131473298866798E+01   9.250957415782108E+01
   9.372004966518858E+01   9.494636408401230E+01   9.618872466434776E+01
   9.744734136808992E+01   9.872242690445759E+01   1.000141967659409E+02
   1.013228692647210E+02   1.026486655695652E+02   1.039918097432044E+02
   1.053525287802007E+02   1.067310526453101E+02   1.081276143123468E+02
   1.095424498035564E+02   1.109757982295045E+02   1.124279018294865E+02
   1.138990060124669E+02   1.153893593985542E+02   1.168992138610176E+02
   1.184288245688549E+02
    </PP_R>
    <PP_RAB>
   4.639478060773454E-07   4.700185015817418E-07   4.761686313315951E-07
   4.823992347134709E-07   4.887113647141700E-07   4.951060880986866E-07
   5.015844855904919E-07   5.081476520541816E-07   5.147966966805089E-07
   5.215327431738412E-07   5.283569299420684E-07   5.352704102889962E-07