 vasp.6.4.3 19Mar24 (build Jun  5 2025 09:16:45) complex                         
 executed on    LinuxNV_CrayMPICH date 2025.10.11  16:02:35
 running   16 mpi-ranks, with    1 threads/rank, on    4 nodes
 distrk:  each k-point on    2 cores,    8 groups
 distr:  one band on NCORE=   1 cores,    2 groups
 OpenACC runtime initialized ...   16 GPUs detected


--------------------------------------------------------------------------------------------------------


 INCAR:
   SYSTEM = hexagonal Boron Nitride
   ISTART = 1
   ICHARG = 1
   PREC = Accurate
   ENCUT = 350
   ADDGRID = .TRUE.
   ALGO = Fast
   EDIFF = 1E-06
   NELM = 100
   NELMIN = 2
   NELMDL = -5
   EDIFFG = -0.01
   NSW = 1000
   IBRION = 2
   ISIF = 3
   POTIM = 0.1
   ISMEAR = 0
   SIGMA = 0.1
   LCHARG = .FALSE.
   LWAVE = .FALSE.
   NBANDS = 128
   NEDOS = 50001
   OMEGAMAX = 50
   LOPTICS = .TRUE.
   KPAR = 8

 POTCAR:    PAW_PBE Si 05Jan2001                  
 POTCAR:    PAW_PBE Si 05Jan2001                  
   SHA256 =  79d9987ad8750f624c4d6acb2a16d13abf6a777132adc04dc6c8399be72b42bb Si/POTCAR             
   COPYR  = (c) Copyright 05Jan2001 Georg Kresse                                                    
   COPYR  = This file is part of the software VASP. Any use, copying, and all other rights are regul
   COPYR  = If you do not have a valid VASP license, you may not use, copy or distribute this file. 
   VRHFIN =Si: s2p2                                                                                 
   LEXCH  = PE                                                                                      
   EATOM  =   103.0669 eV,    7.5752 Ry                                                             
                                                                                                    
   TITEL  = PAW_PBE Si 05Jan2001                                                                    
   LULTRA =        F    use ultrasoft PP ?                                                          
   IUNSCR =        1    unscreen: 0-lin 1-nonlin 2-no                                               
   RPACOR =    1.500    partial core radius                                                         
   POMASS =   28.085; ZVAL   =    4.000    mass and valenz                                          
   RCORE  =    1.900    outmost cutoff radius                                                       
   RWIGS  =    2.480; RWIGS  =    1.312    wigner-seitz radius (au A)                               
   ENMAX  =  245.345; ENMIN  =  184.009 eV                                                          
   ICORE  =        2    local potential                                                             
   LCOR   =        T    correct aug charges                                                         
   LPAW   =        T    paw PP                                                                      
   EAUG   =  322.069                                                                                
   DEXC   =    0.000                                                                                
   RMAX   =    1.950    core radius for proj-oper                                                   
   RAUG   =    1.300    factor for augmentation sphere                                              
   RDEP   =    1.993    radius for radial grids                                                     
   RDEPT  =    1.837    core radius for aug-charge                                                  
                                                                                                    
   Atomic configuration                                                                             
    6 entries                                                                                       
     n  l   j            E        occ.                                                              
     1  0  0.50     -1785.8828   2.0000                                                             
     2  0  0.50      -139.4969   2.0000                                                             
     2  1  1.50       -95.5546   6.0000                                                             
     3  0  0.50       -10.8127   2.0000                                                             
     3  1  0.50        -4.0811   2.0000                                                             
     3  2  1.50        -4.0817   0.0000                                                             
   Description                                                                                      
     l       E           TYP  RCUT    TYP  RCUT                                                     
     0    -10.8127223     23  1.900                                                                 
     0     -7.6451159     23  1.900                                                                 
     1     -4.0811372     23  1.900                                                                 
     1      2.4879257     23  1.900                                                                 
     2     -4.0817478      7  1.900                                                                 
  local pseudopotential read in
  partial core-charges read in
  partial kinetic energy density read in
  atomic valenz-charges read in
  non local Contribution for L=            0  read in
    real space projection operators read in
  non local Contribution for L=            0  read in
    real space projection operators read in
  non local Contribution for L=            1  read in
    real space projection operators read in
  non local Contribution for L=            1  read in
    real space projection operators read in
    PAW grid and wavefunctions read in
 
   number of l-projection  operators is LMAX  =            4
   number of lm-projection operators is LMMAX =            8
 
  PAW_PBE Si 05Jan2001                  :
 energy of atom  1       EATOM= -103.0669
 kinetic energy error for atom=    0.0013 (will be added to EATOM!!)
 
 
 POSCAR: Si, conventional cubic cell, diamond cub
  positions in direct lattice
  velocities in cartesian coordinates


 exchange-correlation table for PE
   RHO(1)=    0.500       N(1)  =     2000
   RHO(2)=  100.500       N(2)  =     4000
 


--------------------------------------------------------------------------------------------------------


 ion  position               nearest neighbor table
   1  0.000  0.000  0.000-   5 2.37   6 2.37   7 2.37   8 2.37
   2  0.500  0.500  0.000-   5 2.37   6 2.37   7 2.37   8 2.37
   3  0.500  0.000  0.500-   5 2.37   6 2.37   7 2.37   8 2.37
   4  0.000  0.500  0.500-   5 2.37   6 2.37   7 2.37   8 2.37
   5  0.250  0.250  0.250-   1 2.37   2 2.37   3 2.37   4 2.37
   6  0.750  0.750  0.250-   1 2.37   2 2.37   3 2.37   4 2.37
   7  0.750  0.250  0.750-   1 2.37   2 2.37   3 2.37   4 2.37
   8  0.250  0.750  0.750-   1 2.37   2 2.37   3 2.37   4 2.37
 
  LATTYP: Found a simple cubic cell.
 ALAT       =     5.4678842947
  
  Lattice vectors:
  
 A1 = (   5.4678842947,   0.0000000000,  -0.0000000000)
 A2 = (   0.0000000000,   5.4678842947,   0.0000000000)
 A3 = (  -0.0000000000,   0.0000000000,   5.4678842947)


Analysis of symmetry for initial positions (statically):
=====================================================================
 Subroutine PRICEL returns following result:
 
  LATTYP: Found a face centered cubic cell.
 ALAT       =     5.4678842947
  
  Lattice vectors:
  
 A1 = (   2.7339421473,  -2.7339421473,   0.0000000000)
 A2 = (   2.7339421473,   0.0000000000,   2.7339421473)
 A3 = (   0.0000000000,  -2.7339421473,   2.7339421473)
 
   4 primitive cells build up your supercell.
 

 Routine SETGRP: Setting up the symmetry group for a 
 simple cubic supercell.


 Subroutine GETGRP returns: Found 48 space group operations
 (whereof 24 operations were pure point group operations)
 out of a pool of 48 trial point group operations.


The static configuration has the point symmetry T_d .
 The point group associated with its full space group is O_h .


Analysis of symmetry for dynamics (positions and initial velocities):
=====================================================================
 Subroutine PRICEL returns following result:
 
  LATTYP: Found a face centered cubic cell.
 ALAT       =     5.4678842947
  
  Lattice vectors:
  
 A1 = (   2.7339421473,  -2.7339421473,   0.0000000000)
 A2 = (   2.7339421473,   0.0000000000,   2.7339421473)
 A3 = (   0.0000000000,  -2.7339421473,   2.7339421473)
 
   4 primitive cells build up your supercell.
 

 Routine SETGRP: Setting up the symmetry group for a 
 simple cubic supercell.


 Subroutine GETGRP returns: Found 48 space group operations
 (whereof 24 operations were pure point group operations)
 out of a pool of 48 trial point group operations.


The dynamic configuration has the point symmetry T_d .
 The point group associated with its full space group is O_h .


 Subroutine INISYM returns: Found 48 space group operations
 (whereof 24 operations are pure point group operations),
 and found     4 'primitive' translations


----------------------------------------------------------------------------------------

                                     Primitive cell                                     

  volume of cell :      40.8694

  direct lattice vectors                    reciprocal lattice vectors
     2.733942147 -2.733942147  0.000000000     0.182886094 -0.182886094 -0.182886094
     2.733942147  0.000000000  2.733942147     0.182886094  0.182886094  0.182886094
     0.000000000 -2.733942147  2.733942147    -0.182886094 -0.182886094  0.182886094

  length of vectors
     3.866378064  3.866378064  3.866378064     0.316768006  0.316768006  0.316768006

  position of ions in fractional coordinates (direct lattice)
     0.000000000  0.000000000  0.000000000
     0.750000000  0.750000000  0.750000000

  ion indices of the primitive-cell ions
   primitive index   ion index
                 1           1
                 2           5

----------------------------------------------------------------------------------------

 
 
 KPOINTS: 1 Automatic mesh                        

Automatic generation of k-mesh.
 Grid dimensions read from file:
 generate k-points for:   16   16   16

 Generating k-lattice:

  Cartesian coordinates                     Fractional coordinates (reciprocal lattice)
     0.011430381 -0.000000000  0.000000000     0.062500000  0.000000000  0.000000000
    -0.000000000  0.011430381 -0.000000000     0.000000000  0.062500000  0.000000000
     0.000000000 -0.000000000  0.011430381     0.000000000  0.000000000  0.062500000

  Length of vectors
     0.011430381  0.011430381  0.011430381

  Shift w.r.t. Gamma in fractional coordinates (k-lattice)
     0.000000000  0.000000000  0.000000000

 
 Subroutine IBZKPT returns following result:
 ===========================================
 
 Found    165 irreducible k-points:
 
 Following reciprocal coordinates:
            Coordinates               Weight
  0.000000  0.000000  0.000000      1.000000
  0.062500  0.000000  0.000000      6.000000
  0.125000  0.000000  0.000000      6.000000
  0.187500  0.000000  0.000000      6.000000
  0.250000  0.000000  0.000000      6.000000
  0.312500  0.000000  0.000000      6.000000
  0.375000  0.000000  0.000000      6.000000
  0.437500  0.000000  0.000000      6.000000
  0.500000  0.000000  0.000000      3.000000
  0.062500  0.062500  0.000000     12.000000
  0.125000  0.062500  0.000000     24.000000
  0.187500  0.062500  0.000000     24.000000
  0.250000  0.062500  0.000000     24.000000
  0.312500  0.062500  0.000000     24.000000
  0.375000  0.062500  0.000000     24.000000
  0.437500  0.062500  0.000000     24.000000
  0.500000  0.062500  0.000000     12.000000
  0.125000  0.125000  0.000000     12.000000
  0.187500  0.125000  0.000000     24.000000
  0.250000  0.125000  0.000000     24.000000
  0.312500  0.125000  0.000000     24.000000
  0.375000  0.125000  0.000000     24.000000
  0.437500  0.125000  0.000000     24.000000
  0.500000  0.125000  0.000000     12.000000
  0.187500  0.187500  0.000000     12.000000
  0.250000  0.187500  0.000000     24.000000
  0.312500  0.187500  0.000000     24.000000
  0.375000  0.187500  0.000000     24.000000
  0.437500  0.187500  0.000000     24.000000
  0.500000  0.187500  0.000000     12.000000
  0.250000  0.250000  0.000000     12.000000
  0.312500  0.250000  0.000000     24.000000
  0.375000  0.250000  0.000000     24.000000
  0.437500  0.250000  0.000000     24.000000
  0.500000  0.250000  0.000000     12.000000
  0.312500  0.312500  0.000000     12.000000
  0.375000  0.312500  0.000000     24.000000
  0.437500  0.312500  0.000000     24.000000
  0.500000  0.312500  0.000000     12.000000
  0.375000  0.375000  0.000000     12.000000
  0.437500  0.375000  0.000000     24.000000
  0.500000  0.375000  0.000000     12.000000
  0.437500  0.437500  0.000000     12.000000
  0.500000  0.437500  0.000000     12.000000
  0.500000  0.500000  0.000000      3.000000
  0.062500  0.062500  0.062500      8.000000
  0.125000  0.062500  0.062500     24.000000
  0.187500  0.062500  0.062500     24.000000
  0.250000  0.062500  0.062500     24.000000
  0.312500  0.062500  0.062500     24.000000
  0.375000  0.062500  0.062500     24.000000
  0.437500  0.062500  0.062500     24.000000
  0.500000  0.062500  0.062500     12.000000
  0.125000  0.125000  0.062500     24.000000
  0.187500  0.125000  0.062500     48.000000
  0.250000  0.125000  0.062500     48.000000
  0.312500  0.125000  0.062500     48.000000
  0.375000  0.125000  0.062500     48.000000
  0.437500  0.125000  0.062500     48.000000
  0.500000  0.125000  0.062500     24.000000
  0.187500  0.187500  0.062500     24.000000
  0.250000  0.187500  0.062500     48.000000
  0.312500  0.187500  0.062500     48.000000
  0.375000  0.187500  0.062500     48.000000
  0.437500  0.187500  0.062500     48.000000
  0.500000  0.187500  0.062500     24.000000
  0.250000  0.250000  0.062500     24.000000
  0.312500  0.250000  0.062500     48.000000
  0.375000  0.250000  0.062500     48.000000
  0.437500  0.250000  0.062500     48.000000
  0.500000  0.250000  0.062500     24.000000
  0.312500  0.312500  0.062500     24.000000
  0.375000  0.312500  0.062500     48.000000
  0.437500  0.312500  0.062500     48.000000
  0.500000  0.312500  0.062500     24.000000
  0.375000  0.375000  0.062500     24.000000
  0.437500  0.375000  0.062500     48.000000
  0.500000  0.375000  0.062500     24.000000
  0.437500  0.437500  0.062500     24.000000
  0.500000  0.437500  0.062500     24.000000
  0.500000  0.500000  0.062500      6.000000
  0.125000  0.125000  0.125000      8.000000
  0.187500  0.125000  0.125000     24.000000
  0.250000  0.125000  0.125000     24.000000
  0.312500  0.125000  0.125000     24.000000
  0.375000  0.125000  0.125000     24.000000
  0.437500  0.125000  0.125000     24.000000
  0.500000  0.125000  0.125000     12.000000
  0.187500  0.187500  0.125000     24.000000
  0.250000  0.187500  0.125000     48.000000
  0.312500  0.187500  0.125000     48.000000
  0.375000  0.187500  0.125000     48.000000
  0.437500  0.187500  0.125000     48.000000
  0.500000  0.187500  0.125000     24.000000
  0.250000  0.250000  0.125000     24.000000
  0.312500  0.250000  0.125000     48.000000
  0.375000  0.250000  0.125000     48.000000
  0.437500  0.250000  0.125000     48.000000
  0.500000  0.250000  0.125000     24.000000
  0.312500  0.312500  0.125000     24.000000
  0.375000  0.312500  0.125000     48.000000
  0.437500  0.312500  0.125000     48.000000
  0.500000  0.312500  0.125000     24.000000
  0.375000  0.375000  0.125000     24.000000
  0.437500  0.375000  0.125000     48.000000
  0.500000  0.375000  0.125000     24.000000
  0.437500  0.437500  0.125000     24.000000
  0.500000  0.437500  0.125000     24.000000
  0.500000  0.500000  0.125000      6.000000
  0.187500  0.187500  0.187500      8.000000
  0.250000  0.187500  0.187500     24.000000
  0.312500  0.187500  0.187500     24.000000
  0.375000  0.187500  0.187500     24.000000
  0.437500  0.187500  0.187500     24.000000
  0.500000  0.187500  0.187500     12.000000
  0.250000  0.250000  0.187500     24.000000
  0.312500  0.250000  0.187500     48.000000
  0.375000  0.250000  0.187500     48.000000
  0.437500  0.250000  0.187500     48.000000
  0.500000  0.250000  0.187500     24.000000
  0.312500  0.312500  0.187500     24.000000
  0.375000  0.312500  0.187500     48.000000
  0.437500  0.312500  0.187500     48.000000
  0.500000  0.312500  0.187500     24.000000
  0.375000  0.375000  0.187500     24.000000
  0.437500  0.375000  0.187500     48.000000
  0.500000  0.375000  0.187500     24.000000
  0.437500  0.437500  0.187500     24.000000
  0.500000  0.437500  0.187500     24.000000
  0.500000  0.500000  0.187500      6.000000
  0.250000  0.250000  0.250000      8.000000
  0.312500  0.250000  0.250000     24.000000
  0.375000  0.250000  0.250000     24.000000
  0.437500  0.250000  0.250000     24.000000
  0.500000  0.250000  0.250000     12.000000
  0.312500  0.312500  0.250000     24.000000
  0.375000  0.312500  0.250000     48.000000
  0.437500  0.312500  0.250000     48.000000
  0.500000  0.312500  0.250000     24.000000
  0.375000  0.375000  0.250000     24.000000
  0.437500  0.375000  0.250000     48.000000
  0.500000  0.375000  0.250000     24.000000
  0.437500  0.437500  0.250000     24.000000
  0.500000  0.437500  0.250000     24.000000
  0.500000  0.500000  0.250000      6.000000
  0.312500  0.312500  0.312500      8.000000
  0.375000  0.312500  0.312500     24.000000
  0.437500  0.312500  0.312500     24.000000
  0.500000  0.312500  0.312500     12.000000
  0.375000  0.375000  0.312500     24.000000
  0.437500  0.375000  0.312500     48.000000
  0.500000  0.375000  0.312500     24.000000
  0.437500  0.437500  0.312500     24.000000
  0.500000  0.437500  0.312500     24.000000
  0.500000  0.500000  0.312500      6.000000
  0.375000  0.375000  0.375000      8.000000
  0.437500  0.375000  0.375000     24.000000
  0.500000  0.375000  0.375000     12.000000
  0.437500  0.437500  0.375000     24.000000
  0.500000  0.437500  0.375000     24.000000
  0.500000  0.500000  0.375000      6.000000
  0.437500  0.437500  0.437500      8.000000
  0.500000  0.437500  0.437500     12.000000
  0.500000  0.500000  0.437500      6.000000
  0.500000  0.500000  0.500000      1.000000
 
 Following cartesian coordinates:
            Coordinates               Weight
  0.000000  0.000000  0.000000      1.000000
  0.062078  0.000000  0.000000      6.000000
  0.124157  0.000000  0.000000      6.000000
  0.186235  0.000000  0.000000      6.000000
  0.248314  0.000000  0.000000      6.000000
  0.310392  0.000000  0.000000      6.000000
  0.372470  0.000000  0.000000      6.000000
  0.434549  0.000000  0.000000      6.000000
  0.496627  0.000000  0.000000      3.000000
  0.062078  0.062078  0.000000     12.000000
  0.124157  0.062078  0.000000     24.000000
  0.186235  0.062078  0.000000     24.000000
  0.248314  0.062078  0.000000     24.000000
  0.310392  0.062078  0.000000     24.000000
  0.372470  0.062078  0.000000     24.000000
  0.434549  0.062078  0.000000     24.000000
  0.496627  0.062078  0.000000     12.000000
  0.124157  0.124157  0.000000     12.000000
  0.186235  0.124157  0.000000     24.000000
  0.248314  0.124157  0.000000     24.000000
  0.310392  0.124157  0.000000     24.000000
  0.372470  0.124157  0.000000     24.000000
  0.434549  0.124157  0.000000     24.000000
  0.496627  0.124157  0.000000     12.000000
  0.186235  0.186235  0.000000     12.000000
  0.248314  0.186235  0.000000     24.000000
  0.310392  0.186235  0.000000     24.000000
  0.372470  0.186235  0.000000     24.000000
  0.434549  0.186235  0.000000     24.000000
  0.496627  0.186235  0.000000     12.000000
  0.248314  0.248314  0.000000     12.000000
  0.310392  0.248314  0.000000     24.000000
  0.372470  0.248314  0.000000     24.000000
  0.434549  0.248314  0.000000     24.000000
  0.496627  0.248314  0.000000     12.000000
  0.310392  0.310392  0.000000     12.000000
  0.372470  0.310392  0.000000     24.000000
  0.434549  0.310392  0.000000     24.000000
  0.496627  0.310392  0.000000     12.000000
  0.372470  0.372470  0.000000     12.000000
  0.434549  0.372470  0.000000     24.000000
  0.496627  0.372470  0.000000     12.000000
  0.434549  0.434549  0.000000     12.000000
  0.496627  0.434549  0.000000     12.000000
  0.496627  0.496627  0.000000      3.000000
  0.062078  0.062078  0.062078      8.000000
  0.124157  0.062078  0.062078     24.000000
  0.186235  0.062078  0.062078     24.000000
  0.248314  0.062078  0.062078     24.000000
  0.310392  0.062078  0.062078     24.000000
  0.372470  0.062078  0.062078     24.000000
  0.434549  0.062078  0.062078     24.000000
  0.496627  0.062078  0.062078     12.000000
  0.124157  0.124157  0.062078     24.000000
  0.186235  0.124157  0.062078     48.000000
  0.248314  0.124157  0.062078     48.000000
  0.310392  0.124157  0.062078     48.000000
  0.372470  0.124157  0.062078     48.000000
  0.434549  0.124157  0.062078     48.000000
  0.496627  0.124157  0.062078     24.000000
  0.186235  0.186235  0.062078     24.000000
  0.248314  0.186235  0.062078     48.000000
  0.310392  0.186235  0.062078     48.000000
  0.372470  0.186235  0.062078     48.000000
  0.434549  0.186235  0.062078     48.000000
  0.496627  0.186235  0.062078     24.000000
  0.248314  0.248314  0.062078     24.000000
  0.310392  0.248314  0.062078     48.000000
  0.372470  0.248314  0.062078     48.000000
  0.434549  0.248314  0.062078     48.000000
  0.496627  0.248314  0.062078     24.000000
  0.310392  0.310392  0.062078     24.000000
  0.372470  0.310392  0.062078     48.000000
  0.434549  0.310392  0.062078     48.000000
  0.496627  0.310392  0.062078     24.000000
  0.372470  0.372470  0.062078     24.000000
  0.434549  0.372470  0.062078     48.000000
  0.496627  0.372470  0.062078     24.000000
  0.434549  0.434549  0.062078     24.000000
  0.496627  0.434549  0.062078     24.000000
  0.496627  0.496627  0.062078      6.000000
  0.124157  0.124157  0.124157      8.000000
  0.186235  0.124157  0.124157     24.000000
  0.248314  0.124157  0.124157     24.000000
  0.310392  0.124157  0.124157     24.000000
  0.372470  0.124157  0.124157     24.000000
  0.434549  0.124157  0.124157     24.000000
  0.496627  0.124157  0.124157     12.000000
  0.186235  0.186235  0.124157     24.000000
  0.248314  0.186235  0.124157     48.000000
  0.310392  0.186235  0.124157     48.000000
  0.372470  0.186235  0.124157     48.000000
  0.434549  0.186235  0.124157     48.000000
  0.496627  0.186235  0.124157     24.000000
  0.248314  0.248314  0.124157     24.000000
  0.310392  0.248314  0.124157     48.000000
  0.372470  0.248314  0.124157     48.000000
  0.434549  0.248314  0.124157     48.000000
  0.496627  0.248314  0.124157     24.000000
  0.310392  0.310392  0.124157     24.000000
  0.372470  0.310392  0.124157     48.000000
  0.434549  0.310392  0.124157     48.000000
  0.496627  0.310392  0.124157     24.000000
  0.372470  0.372470  0.124157     24.000000
  0.434549  0.372470  0.124157     48.000000
  0.496627  0.372470  0.124157     24.000000
  0.434549  0.434549  0.124157     24.000000
  0.496627  0.434549  0.124157     24.000000
  0.496627  0.496627  0.124157      6.000000
  0.186235  0.186235  0.186235      8.000000
  0.248314  0.186235  0.186235     24.000000
  0.310392  0.186235  0.186235     24.000000
  0.372470  0.186235  0.186235     24.000000
  0.434549  0.186235  0.186235     24.000000
  0.496627  0.186235  0.186235     12.000000
  0.248314  0.248314  0.186235     24.000000
  0.310392  0.248314  0.186235     48.000000
  0.372470  0.248314  0.186235     48.000000
  0.434549  0.248314  0.186235     48.000000
  0.496627  0.248314  0.186235     24.000000
  0.310392  0.310392  0.186235     24.000000
  0.372470  0.310392  0.186235     48.000000
  0.434549  0.310392  0.186235     48.000000
  0.496627  0.310392  0.186235     24.000000
  0.372470  0.372470  0.186235     24.000000
  0.434549  0.372470  0.186235     48.000000
  0.496627  0.372470  0.186235     24.000000
  0.434549  0.434549  0.186235     24.000000
  0.496627  0.434549  0.186235     24.000000
  0.496627  0.496627  0.186235      6.000000
  0.248314  0.248314  0.248314      8.000000
  0.310392  0.248314  0.248314     24.000000
  0.372470  0.248314  0.248314     24.000000
  0.434549  0.248314  0.248314     24.000000
  0.496627  0.248314  0.248314     12.000000
  0.310392  0.310392  0.248314     24.000000
  0.372470  0.310392  0.248314     48.000000
  0.434549  0.310392  0.248314     48.000000
  0.496627  0.310392  0.248314     24.000000
  0.372470  0.372470  0.248314     24.000000
  0.434549  0.372470  0.248314     48.000000
  0.496627  0.372470  0.248314     24.000000
  0.434549  0.434549  0.248314     24.000000
  0.496627  0.434549  0.248314     24.000000
  0.496627  0.496627  0.248314      6.000000
  0.310392  0.310392  0.310392      8.000000
  0.372470  0.310392  0.310392     24.000000
  0.434549  0.310392  0.310392     24.000000
  0.496627  0.310392  0.310392     12.000000
  0.372470  0.372470  0.310392     24.000000
  0.434549  0.372470  0.310392     48.000000
  0.496627  0.372470  0.310392     24.000000
  0.434549  0.434549  0.310392     24.000000
  0.496627  0.434549  0.310392     24.000000
  0.496627  0.496627  0.310392      6.000000
  0.372470  0.372470  0.372470      8.000000
  0.434549  0.372470  0.372470     24.000000
  0.496627  0.372470  0.372470     12.000000
  0.434549  0.434549  0.372470     24.000000
  0.496627  0.434549  0.372470     24.000000
  0.496627  0.496627  0.372470      6.000000
  0.434549  0.434549  0.434549      8.000000
  0.496627  0.434549  0.434549     12.000000
  0.496627  0.496627  0.434549      6.000000
  0.496627  0.496627  0.496627      1.000000
 


--------------------------------------------------------------------------------------------------------




 Dimension of arrays:
   k-points           NKPTS =    165   k-points in BZ     NKDIM =    165   number of bands    NBANDS=    128
   number of dos      NEDOS =  50001   number of ions     NIONS =      8
   non local maximal  LDIM  =      4   non local SUM 2l+1 LMDIM =      8
   total plane-waves  NPLWV =  46656
   max r-space proj   IRMAX =      1   max aug-charges    IRDMAX=  76528
   dimension x,y,z NGX =    36 NGY =   36 NGZ =   36
   dimension x,y,z NGXF=    72 NGYF=   72 NGZF=   72
   support grid    NGXF=   144 NGYF=  144 NGZF=  144
   ions per type =               8
   NGX,Y,Z   is equivalent  to a cutoff of  10.95, 10.95, 10.95 a.u.
   NGXF,Y,Z  is equivalent  to a cutoff of  21.89, 21.89, 21.89 a.u.

 SYSTEM =  hexagonal Boron Nitride                 
 POSCAR =  Si, conventional cubic cell, diamond cub

 Startparameter for this run:
   NWRITE =      2    write-flag & timer
   PREC   = accura    normal or accurate (medium, high low for compatibility)
   ISTART =      1    job   : 0-new  1-cont  2-samecut
   ICHARG =      1    charge: 1-file 2-atom 10-const
   ISPIN  =      1    spin polarized calculation?
   LNONCOLLINEAR =      F non collinear calculations
   LSORBIT =      F    spin-orbit coupling
   INIWAV =      1    electr: 0-lowe 1-rand  2-diag
   LASPH  =      F    aspherical Exc in radial PAW
 Electronic Relaxation 1
   ENCUT  =  350.0 eV  25.72 Ry    5.07 a.u.   8.34  8.34  8.34*2*pi/ulx,y,z
   ENINI  =  350.0     initial cutoff
   ENAUG  =  322.1 eV  augmentation charge cutoff
   NELM   =    100;   NELMIN=  2; NELMDL= -5     # of ELM steps 
   EDIFF  = 0.1E-05   stopping-criterion for ELM
   LREAL  =      F    real-space projection
   NLSPLINE    = F    spline interpolate recip. space projectors
   LCOMPAT=      F    compatible to vasp.4.4
   GGA_COMPAT  = T    GGA compatible to vasp.4.4-vasp.4.6
   LMAXPAW     = -100 max onsite density
   LMAXMIX     =    2 max onsite mixed and CHGCAR
   VOSKOWN=      0    Vosko Wilk Nusair interpolation
   ROPT   =    0.00000
 Ionic relaxation
   EDIFFG = -.1E-01   stopping-criterion for IOM
   NSW    =   1000    number of steps for IOM
   NBLOCK =      1;   KBLOCK =   1000    inner block; outer block 
   IBRION =      2    ionic relax: 0-MD 1-quasi-New 2-CG
   NFREE  =      1    steps in history (QN), initial steepest desc. (CG)
   ISIF   =      3    stress and relaxation
   IWAVPR =     11    prediction:  0-non 1-charg 2-wave 3-comb
   ISYM   =      2    0-nonsym 1-usesym 2-fastsym
   LCORR  =      T    Harris-Foulkes like correction to forces

   POTIM  = 0.1000    time-step for ionic-motion
   TEIN   =    0.0    initial temperature
   TEBEG  =    0.0;   TEEND  =   0.0 temperature during run
   SMASS  =  -3.00    Nose mass-parameter (am)
   estimated Nose-frequenzy (Omega)   =  0.10E-29 period in steps = 0.63E+47 mass=  -0.683E-27a.u.
   SCALEE = 1.0000    scale energy and forces
   NPACO  =    256;   APACO  = 10.0  distance and # of slots for P.C.
   PSTRESS=    0.0 pullay stress

  Mass of Ions in am
   POMASS =  28.09
  Ionic Valenz
   ZVAL   =   4.00
  Atomic Wigner-Seitz radii
   RWIGS  =  -1.00
  virtual crystal weights 
   VCA    =   1.00
   NELECT =      32.0000    total number of electrons
   NUPDOWN=      -1.0000    fix difference up-down

 DOS related values:
   EMIN   =  10.00;   EMAX   =-10.00  energy-range for DOS
   EFERMI =   0.00;   METHOD = LEGACY      
   ISMEAR =     0;   SIGMA  =   0.10  broadening in eV -4-tet -1-fermi 0-gaus

 Electronic relaxation 2 (details)
   IALGO  =     68    algorithm
   LDIAG  =      T    sub-space diagonalisation (order eigenvalues)
   LSUBROT=      F    optimize rotation matrix (better conditioning)
   TURBO    =      0    0=normal 1=particle mesh
   IRESTART =      0    0=no restart 2=restart with 2 vectors
   NREBOOT  =      0    no. of reboots
   NMIN     =      0    reboot dimension
   EREF     =   0.00    reference energy to select bands
   IMIX   =      4    mixing-type and parameters
     AMIX     =   0.40;   BMIX     =  1.00
     AMIX_MAG =   1.60;   BMIX_MAG =  1.00
     AMIN     =   0.10
     WC   =   100.;   INIMIX=   1;  MIXPRE=   1;  MAXMIX= -45

 Intra band minimization:
   WEIMIN = 0.0010     energy-eigenvalue tresh-hold
   EBREAK =  0.20E-08  absolut break condition
   DEPER  =   0.30     relativ break condition  

   TIME   =   0.40     timestep for ELM

  volume/ion in A,a.u.               =      20.43       137.90
  Fermi-wavevector in a.u.,A,eV,Ry     =   0.950544  1.796267 12.293322  0.903534
  Thomas-Fermi vector in A             =   2.078931
 
 Write flags
   LWAVE        =      F    write WAVECAR
   LDOWNSAMPLE  =      F    k-point downsampling of WAVECAR
   LCHARG       =      F    write CHGCAR
   LVTOT        =      F    write LOCPOT, total local potential
   LVHAR        =      F    write LOCPOT, Hartree potential only
   WRT_POTENTIAL= false  ! write potential to hdf5 file
   LELF         =      F    write electronic localiz. function (ELF)
   LORBIT       =      0    0 simple, 1 ext, 2 COOP (PROOUT), +10 PAW based schemes


 Dipole corrections
   LMONO      =      F    monopole corrections only (constant potential shift)
   LDIPOL     =      F    correct potential (dipole corrections)
   IDIPOL     =      0    1-x, 2-y, 3-z, 4-all directions 
   EPSILON    =  1.0000000 bulk dielectric constant
   LVACPOTAV  =      F  vacuum potentials using an averaging scheme for the charge density
   VACPOTFLAT =  0.1000000 required flatness to determine vacuum potential
 Exchange correlation treatment:
   GGA     = PE    functional components
   XC_C    = 1    coefficients multiplying the functional components
   LIBXC   =     F    Libxc                    
   VOSKOWN =     0    Vosko Wilk Nusair interpolation
   LHFCALC =     F    Hartree Fock is set to
   LHFONE  =     F    Hartree Fock one center treatment
   AEXX    =    0.0000 exact exchange contribution

 Parameters of functionals:
   PE:
     No parameter
 
 Van der Waals corrections
   IVDW    =     0    specifies the selected vdW correction

 Linear response parameters
   LEPSILON=     F    determine dielectric tensor
   LRPA    =     F    only Hartree local field effects (RPA)
   LNABLA  =     F    use nabla operator in PAW spheres
   LVEL    =     F    velocity operator in full k-point grid
   CSHIFT  =0.1000    complex shift for real part using Kramers Kronig
   OMEGAMAX=  50.0    maximum frequency
   DEG_THRESHOLD= 0.2000000E-02 threshold for treating states as degnerate
   RTIME   =   -0.100 relaxation time in fs
  (WPLASMAI=    0.000 imaginary part of plasma frequency in eV, 0.658/RTIME)
   DFIELD  = 0.0000000 0.0000000 0.0000000 field for delta impulse in time
 
  Optional k-point grid parameters
   LKPOINTS_OPT  =     F    use optional k-point grid
   KPOINTS_OPT_MODE=     1    mode for optional k-point grid
 
 Orbital magnetization related:
   ORBITALMAG=     F  switch on orbital magnetization
   LCHIMAG   =     F  perturbation theory with respect to B field
   DQ        =  0.001000  dq finite difference perturbation B field
   LLRAUG    =     F  two centre corrections for induced B field
   LBONE     =     F  B-component reconstruction in AE one-centre
   LVGVCALC  =     T  calculate vGv susceptibility
   LVGVAPPL  =     F  apply vGv susceptibility instead of pGv for G=0

 Random number generation:
   RANDOM_GENERATOR = DEFAULT
   PCG_SEED         = not used


--------------------------------------------------------------------------------------------------------


 conjugate gradient relaxation of ions
 charge density and potential will be updated during run
 non-spin polarized calculation
 RMM-DIIS sequential band-by-band and
  variant of blocked Davidson during initial phase
 perform sub-space diagonalisation
    before iterative eigenvector-optimisation
 modified Broyden-mixing scheme, WC =      100.0
 initial mixing is a Kerker type mixing with AMIX =  0.4000 and BMIX =      1.0000
 Hartree-type preconditioning will be used
 using additional bands           112
 reciprocal scheme for non local part
 use partial core corrections
 calculate Harris-corrections to forces 
   (improved forces if not selfconsistent)
 use gradient corrections 
 use of overlap-Matrix (Vanderbilt PP)
 Gauss-broadening in eV      SIGMA  =   0.10


--------------------------------------------------------------------------------------------------------


  energy-cutoff  :      350.00
  volume of cell :      163.48
      direct lattice vectors                 reciprocal lattice vectors
     5.467884295  0.000000000 -0.000000000     0.182886094 -0.000000000  0.000000000
     0.000000000  5.467884295  0.000000000    -0.000000000  0.182886094 -0.000000000
    -0.000000000  0.000000000  5.467884295     0.000000000 -0.000000000  0.182886094

  length of vectors
     5.467884295  5.467884295  5.467884295     0.182886094  0.182886094  0.182886094


 
 old parameters found on file WAVECAR:
  energy-cutoff  :      350.00
  volume of cell :      160.19
      direct lattice vectors                 reciprocal lattice vectors
     5.431000000  0.000000000  0.000000000     0.184128153  0.000000000  0.000000000
     0.000000000  5.431000000  0.000000000     0.000000000  0.184128153  0.000000000
     0.000000000  0.000000000  5.431000000     0.000000000  0.000000000  0.184128153

  length of vectors

 
 k-points in units of 2pi/SCALE and weight: 1 Automatic mesh                        
   0.00000000  0.00000000  0.00000000       0.000
   0.06207840  0.00000000  0.00000000       0.001
   0.12415680  0.00000000  0.00000000       0.001
   0.18623520  0.00000000  0.00000000       0.001
   0.24831359  0.00000000  0.00000000       0.001
   0.31039199  0.00000000  0.00000000       0.001
   0.37247039  0.00000000  0.00000000       0.001
   0.43454879  0.00000000  0.00000000       0.001
   0.49662719  0.00000000  0.00000000       0.001
   0.06207840  0.06207840  0.00000000       0.003
   0.12415680  0.06207840  0.00000000       0.006
   0.18623520  0.06207840  0.00000000       0.006
   0.24831359  0.06207840  0.00000000       0.006
   0.31039199  0.06207840  0.00000000       0.006
   0.37247039  0.06207840  0.00000000       0.006
   0.43454879  0.06207840  0.00000000       0.006
   0.49662719  0.06207840  0.00000000       0.003
   0.12415680  0.12415680  0.00000000       0.003
   0.18623520  0.12415680  0.00000000       0.006
   0.24831359  0.12415680  0.00000000       0.006
   0.31039199  0.12415680  0.00000000       0.006
   0.37247039  0.12415680  0.00000000       0.006
   0.43454879  0.12415680  0.00000000       0.006
   0.49662719  0.12415680  0.00000000       0.003
   0.18623520  0.18623520  0.00000000       0.003
   0.24831359  0.18623520  0.00000000       0.006
   0.31039199  0.18623520  0.00000000       0.006
   0.37247039  0.18623520  0.00000000       0.006
   0.43454879  0.18623520  0.00000000       0.006
   0.49662719  0.18623520  0.00000000       0.003
   0.24831359  0.24831359  0.00000000       0.003
   0.31039199  0.24831359  0.00000000       0.006
   0.37247039  0.24831359  0.00000000       0.006
   0.43454879  0.24831359  0.00000000       0.006
   0.49662719  0.24831359  0.00000000       0.003
   0.31039199  0.31039199  0.00000000       0.003
   0.37247039  0.31039199  0.00000000       0.006
   0.43454879  0.31039199  0.00000000       0.006
   0.49662719  0.31039199  0.00000000       0.003
   0.37247039  0.37247039  0.00000000       0.003
   0.43454879  0.37247039  0.00000000       0.006
   0.49662719  0.37247039  0.00000000       0.003
   0.43454879  0.43454879  0.00000000       0.003
   0.49662719  0.43454879  0.00000000       0.003
   0.49662719  0.49662719  0.00000000       0.001
   0.06207840  0.06207840  0.06207840       0.002
   0.12415680  0.06207840  0.06207840       0.006
   0.18623520  0.06207840  0.06207840       0.006
   0.24831359  0.06207840  0.06207840       0.006
   0.31039199  0.06207840  0.06207840       0.006
   0.37247039  0.06207840  0.06207840       0.006
   0.43454879  0.06207840  0.06207840       0.006
   0.49662719  0.06207840  0.06207840       0.003
   0.12415680  0.12415680  0.06207840       0.006
   0.18623520  0.12415680  0.06207840       0.012
   0.24831359  0.12415680  0.06207840       0.012
   0.31039199  0.12415680  0.06207840       0.012
   0.37247039  0.12415680  0.06207840       0.012
   0.43454879  0.12415680  0.06207840       0.012
   0.49662719  0.12415680  0.06207840       0.006
   0.18623520  0.18623520  0.06207840       0.006
   0.24831359  0.18623520  0.06207840       0.012
   0.31039199  0.18623520  0.06207840       0.012
   0.37247039  0.18623520  0.06207840       0.012
   0.43454879  0.18623520  0.06207840       0.012
   0.49662719  0.18623520  0.06207840       0.006
   0.24831359  0.24831359  0.06207840       0.006
   0.31039199  0.24831359  0.06207840       0.012
   0.37247039  0.24831359  0.06207840       0.012
   0.43454879  0.24831359  0.06207840       0.012
   0.49662719  0.24831359  0.06207840       0.006
   0.31039199  0.31039199  0.06207840       0.006
   0.37247039  0.31039199  0.06207840       0.012
   0.43454879  0.31039199  0.06207840       0.012
   0.49662719  0.31039199  0.06207840       0.006
   0.37247039  0.37247039  0.06207840       0.006
   0.43454879  0.37247039  0.06207840       0.012
   0.49662719  0.37247039  0.06207840       0.006
   0.43454879  0.43454879  0.06207840       0.006
   0.49662719  0.43454879  0.06207840       0.006
   0.49662719  0.49662719  0.06207840       0.001
   0.12415680  0.12415680  0.12415680       0.002
   0.18623520  0.12415680  0.12415680       0.006
   0.24831359  0.12415680  0.12415680       0.006
   0.31039199  0.12415680  0.12415680       0.006
   0.37247039  0.12415680  0.12415680       0.006
   0.43454879  0.12415680  0.12415680       0.006
   0.49662719  0.12415680  0.12415680       0.003
   0.18623520  0.18623520  0.12415680       0.006
   0.24831359  0.18623520  0.12415680       0.012
   0.31039199  0.18623520  0.12415680       0.012
   0.37247039  0.18623520  0.12415680       0.012
   0.43454879  0.18623520  0.12415680       0.012
   0.49662719  0.18623520  0.12415680       0.006
   0.24831359  0.24831359  0.12415680       0.006
   0.31039199  0.24831359  0.12415680       0.012
   0.37247039  0.24831359  0.12415680       0.012
   0.43454879  0.24831359  0.12415680       0.012
   0.49662719  0.24831359  0.12415680       0.006
   0.31039199  0.31039199  0.12415680       0.006
   0.37247039  0.31039199  0.12415680       0.012
   0.43454879  0.31039199  0.12415680       0.012
   0.49662719  0.31039199  0.12415680       0.006
   0.37247039  0.37247039  0.12415680       0.006
   0.43454879  0.37247039  0.12415680       0.012
   0.49662719  0.37247039  0.12415680       0.006
   0.43454879  0.43454879  0.12415680       0.006
   0.49662719  0.43454879  0.12415680       0.006
   0.49662719  0.49662719  0.12415680       0.001
   0.18623520  0.18623520  0.18623520       0.002
   0.24831359  0.18623520  0.18623520       0.006
   0.31039199  0.18623520  0.18623520       0.006
   0.37247039  0.18623520  0.18623520       0.006
   0.43454879  0.18623520  0.18623520       0.006
   0.49662719  0.18623520  0.18623520       0.003
   0.24831359  0.24831359  0.18623520       0.006
   0.31039199  0.24831359  0.18623520       0.012
   0.37247039  0.24831359  0.18623520       0.012
   0.43454879  0.24831359  0.18623520       0.012
   0.49662719  0.24831359  0.18623520       0.006
   0.31039199  0.31039199  0.18623520       0.006
   0.37247039  0.31039199  0.18623520       0.012
   0.43454879  0.31039199  0.18623520       0.012
   0.49662719  0.31039199  0.18623520       0.006
   0.37247039  0.37247039  0.18623520       0.006
   0.43454879  0.37247039  0.18623520       0.012
   0.49662719  0.37247039  0.18623520       0.006
   0.43454879  0.43454879  0.18623520       0.006
   0.49662719  0.43454879  0.18623520       0.006
   0.49662719  0.49662719  0.18623520       0.001
   0.24831359  0.24831359  0.24831359       0.002
   0.31039199  0.24831359  0.24831359       0.006
   0.37247039  0.24831359  0.24831359       0.006
   0.43454879  0.24831359  0.24831359       0.006
   0.49662719  0.24831359  0.24831359       0.003
   0.31039199  0.31039199  0.24831359       0.006
   0.37247039  0.31039199  0.24831359       0.012
   0.43454879  0.31039199  0.24831359       0.012
   0.49662719  0.31039199  0.24831359       0.006
   0.37247039  0.37247039  0.24831359       0.006
   0.43454879  0.37247039  0.24831359       0.012
   0.49662719  0.37247039  0.24831359       0.006
   0.43454879  0.43454879  0.24831359       0.006
   0.49662719  0.43454879  0.24831359       0.006
   0.49662719  0.49662719  0.24831359       0.001
   0.31039199  0.31039199  0.31039199       0.002
   0.37247039  0.31039199  0.31039199       0.006
   0.43454879  0.31039199  0.31039199       0.006
   0.49662719  0.31039199  0.31039199       0.003
   0.37247039  0.37247039  0.31039199       0.006
   0.43454879  0.37247039  0.31039199       0.012
   0.49662719  0.37247039  0.31039199       0.006
   0.43454879  0.43454879  0.31039199       0.006
   0.49662719  0.43454879  0.31039199       0.006
   0.49662719  0.49662719  0.31039199       0.001
   0.37247039  0.37247039  0.37247039       0.002
   0.43454879  0.37247039  0.37247039       0.006
   0.49662719  0.37247039  0.37247039       0.003
   0.43454879  0.43454879  0.37247039       0.006
   0.49662719  0.43454879  0.37247039       0.006
   0.49662719  0.49662719  0.37247039       0.001
   0.43454879  0.43454879  0.43454879       0.002
   0.49662719  0.43454879  0.43454879       0.003
   0.49662719  0.49662719  0.43454879       0.001
   0.49662719  0.49662719  0.49662719       0.000
 
 k-points in reciprocal lattice and weights: 1 Automatic mesh                        
   0.00000000  0.00000000  0.00000000       0.000
   0.06250000  0.00000000  0.00000000       0.001
   0.12500000  0.00000000  0.00000000       0.001
   0.18750000  0.00000000  0.00000000       0.001
   0.25000000  0.00000000  0.00000000       0.001
   0.31250000  0.00000000  0.00000000       0.001
   0.37500000  0.00000000  0.00000000       0.001
   0.43750000  0.00000000  0.00000000       0.001
   0.50000000  0.00000000  0.00000000       0.001
   0.06250000  0.06250000  0.00000000       0.003
   0.12500000  0.06250000  0.00000000       0.006
   0.18750000  0.06250000  0.00000000       0.006
   0.25000000  0.06250000  0.00000000       0.006
   0.31250000  0.06250000  0.00000000       0.006
   0.37500000  0.06250000  0.00000000       0.006
   0.43750000  0.06250000  0.00000000       0.006
   0.50000000  0.06250000  0.00000000       0.003
   0.12500000  0.12500000  0.00000000       0.003
   0.18750000  0.12500000  0.00000000       0.006
   0.25000000  0.12500000  0.00000000       0.006
   0.31250000  0.12500000  0.00000000       0.006
   0.37500000  0.12500000  0.00000000       0.006
   0.43750000  0.12500000  0.00000000       0.006
   0.50000000  0.12500000  0.00000000       0.003
   0.18750000  0.18750000  0.00000000       0.003
   0.25000000  0.18750000  0.00000000       0.006
   0.31250000  0.18750000  0.00000000       0.006
   0.37500000  0.18750000  0.00000000       0.006
   0.43750000  0.18750000  0.00000000       0.006
   0.50000000  0.18750000  0.00000000       0.003
   0.25000000  0.25000000  0.00000000       0.003
   0.31250000  0.25000000  0.00000000       0.006
   0.37500000  0.25000000  0.00000000       0.006
   0.43750000  0.25000000  0.00000000       0.006
   0.50000000  0.25000000  0.00000000       0.003
   0.31250000  0.31250000  0.00000000       0.003
   0.37500000  0.31250000  0.00000000       0.006
   0.43750000  0.31250000  0.00000000       0.006
   0.50000000  0.31250000  0.00000000       0.003
   0.37500000  0.37500000  0.00000000       0.003
   0.43750000  0.37500000  0.00000000       0.006
   0.50000000  0.37500000  0.00000000       0.003
   0.43750000  0.43750000  0.00000000       0.003
   0.50000000  0.43750000  0.00000000       0.003
   0.50000000  0.50000000  0.00000000       0.001
   0.06250000  0.06250000  0.06250000       0.002
   0.12500000  0.06250000  0.06250000       0.006
   0.18750000  0.06250000  0.06250000       0.006
   0.25000000  0.06250000  0.06250000       0.006
   0.31250000  0.06250000  0.06250000       0.006
   0.37500000  0.06250000  0.06250000       0.006
   0.43750000  0.06250000  0.06250000       0.006
   0.50000000  0.06250000  0.06250000       0.003
   0.12500000  0.12500000  0.06250000       0.006
   0.18750000  0.12500000  0.06250000       0.012
   0.25000000  0.12500000  0.06250000       0.012
   0.31250000  0.12500000  0.06250000       0.012
   0.37500000  0.12500000  0.06250000       0.012
   0.43750000  0.12500000  0.06250000       0.012
   0.50000000  0.12500000  0.06250000       0.006
   0.18750000  0.18750000  0.06250000       0.006
   0.25000000  0.18750000  0.06250000       0.012
   0.31250000  0.18750000  0.06250000       0.012
   0.37500000  0.18750000  0.06250000       0.012
   0.43750000  0.18750000  0.06250000       0.012
   0.50000000  0.18750000  0.06250000       0.006
   0.25000000  0.25000000  0.06250000       0.006
   0.31250000  0.25000000  0.06250000       0.012
   0.37500000  0.25000000  0.06250000       0.012
   0.43750000  0.25000000  0.06250000       0.012
   0.50000000  0.25000000  0.06250000       0.006
   0.31250000  0.31250000  0.06250000       0.006
   0.37500000  0.31250000  0.06250000       0.012
   0.43750000  0.31250000  0.06250000       0.012
   0.50000000  0.31250000  0.06250000       0.006
   0.37500000  0.37500000  0.06250000       0.006
   0.43750000  0.37500000  0.06250000       0.012
   0.50000000  0.37500000  0.06250000       0.006
   0.43750000  0.43750000  0.06250000       0.006
   0.50000000  0.43750000  0.06250000       0.006
   0.50000000  0.50000000  0.06250000       0.001
   0.12500000  0.12500000  0.12500000       0.002
   0.18750000  0.12500000  0.12500000       0.006
   0.25000000  0.12500000  0.12500000       0.006
   0.31250000  0.12500000  0.12500000       0.006
   0.37500000  0.12500000  0.12500000       0.006
   0.43750000  0.12500000  0.12500000       0.006
   0.50000000  0.12500000  0.12500000       0.003
   0.18750000  0.18750000  0.12500000       0.006
   0.25000000  0.18750000  0.12500000       0.012
   0.31250000  0.18750000  0.12500000       0.012
   0.37500000  0.18750000  0.12500000       0.012
   0.43750000  0.18750000  0.12500000       0.012
   0.50000000  0.18750000  0.12500000       0.006
   0.25000000  0.25000000  0.12500000       0.006
   0.31250000  0.25000000  0.12500000       0.012
   0.37500000  0.25000000  0.12500000       0.012
   0.43750000  0.25000000  0.12500000       0.012
   0.50000000  0.25000000  0.12500000       0.006
   0.31250000  0.31250000  0.12500000       0.006
   0.37500000  0.31250000  0.12500000       0.012
   0.43750000  0.31250000  0.12500000       0.012
   0.50000000  0.31250000  0.12500000       0.006
   0.37500000  0.37500000  0.12500000       0.006
   0.43750000  0.37500000  0.12500000       0.012
   0.50000000  0.37500000  0.12500000       0.006
   0.43750000  0.43750000  0.12500000       0.006
   0.50000000  0.43750000  0.12500000       0.006
   0.50000000  0.50000000  0.12500000       0.001
   0.18750000  0.18750000  0.18750000       0.002
   0.25000000  0.18750000  0.18750000       0.006
   0.31250000  0.18750000  0.18750000       0.006
   0.37500000  0.18750000  0.18750000       0.006
   0.43750000  0.18750000  0.18750000       0.006
   0.50000000  0.18750000  0.18750000       0.003
   0.25000000  0.25000000  0.18750000       0.006
   0.31250000  0.25000000  0.18750000       0.012
   0.37500000  0.25000000  0.18750000       0.012
   0.43750000  0.25000000  0.18750000       0.012
   0.50000000  0.25000000  0.18750000       0.006
   0.31250000  0.31250000  0.18750000       0.006
   0.37500000  0.31250000  0.18750000       0.012
   0.43750000  0.31250000  0.18750000       0.012
   0.50000000  0.31250000  0.18750000       0.006
   0.37500000  0.37500000  0.18750000       0.006
   0.43750000  0.37500000  0.18750000       0.012
   0.50000000  0.37500000  0.18750000       0.006
   0.43750000  0.43750000  0.18750000       0.006
   0.50000000  0.43750000  0.18750000       0.006
   0.50000000  0.50000000  0.18750000       0.001
   0.25000000  0.25000000  0.25000000       0.002
   0.31250000  0.25000000  0.25000000       0.006
   0.37500000  0.25000000  0.25000000       0.006
   0.43750000  0.25000000  0.25000000       0.006
   0.50000000  0.25000000  0.25000000       0.003
   0.31250000  0.31250000  0.25000000       0.006
   0.37500000  0.31250000  0.25000000       0.012
   0.43750000  0.31250000  0.25000000       0.012
   0.50000000  0.31250000  0.25000000       0.006
   0.37500000  0.37500000  0.25000000       0.006
   0.43750000  0.37500000  0.25000000       0.012
   0.50000000  0.37500000  0.25000000       0.006
   0.43750000  0.43750000  0.25000000       0.006
   0.50000000  0.43750000  0.25000000       0.006
   0.50000000  0.50000000  0.25000000       0.001
   0.31250000  0.31250000  0.31250000       0.002
   0.37500000  0.31250000  0.31250000       0.006
   0.43750000  0.31250000  0.31250000       0.006
   0.50000000  0.31250000  0.31250000       0.003
   0.37500000  0.37500000  0.31250000       0.006
   0.43750000  0.37500000  0.31250000       0.012
   0.50000000  0.37500000  0.31250000       0.006
   0.43750000  0.43750000  0.31250000       0.006
   0.50000000  0.43750000  0.31250000       0.006
   0.50000000  0.50000000  0.31250000       0.001
   0.37500000  0.37500000  0.37500000       0.002
   0.43750000  0.37500000  0.37500000       0.006
   0.50000000  0.37500000  0.37500000       0.003
   0.43750000  0.43750000  0.37500000       0.006
   0.50000000  0.43750000  0.37500000       0.006
   0.50000000  0.50000000  0.37500000       0.001
   0.43750000  0.43750000  0.43750000       0.002
   0.50000000  0.43750000  0.43750000       0.003
   0.50000000  0.50000000  0.43750000       0.001
   0.50000000  0.50000000  0.50000000       0.000
 
 position of ions in fractional coordinates (direct lattice) 
   0.00000000  0.00000000  0.00000000
   0.50000000  0.50000000  0.00000000
   0.50000000  0.00000000  0.50000000
   0.00000000  0.50000000  0.50000000
   0.25000000  0.25000000  0.25000000
   0.75000000  0.75000000  0.25000000
   0.75000000  0.25000000  0.75000000
   0.25000000  0.75000000  0.75000000
 
 position of ions in cartesian coordinates  (Angst):
   0.00000000  0.00000000  0.00000000
   2.73394215  2.73394215  0.00000000
   2.73394215  0.00000000  2.73394215
   0.00000000  2.73394215  2.73394215
   1.36697107  1.36697107  1.36697107
   4.10091322  4.10091322  1.36697107
   4.10091322  1.36697107  4.10091322
   1.36697107  4.10091322  4.10091322
 


--------------------------------------------------------------------------------------------------------


 k-point     1 :   0.0000 0.0000 0.0000  plane waves:    2469
 k-point     2 :   0.0625 0.0000 0.0000  plane waves:    2469
 k-point     3 :   0.1250 0.0000 0.0000  plane waves:    2465
 k-point     4 :   0.1875 0.0000 0.0000  plane waves:    2445
 k-point     5 :   0.2500 0.0000 0.0000  plane waves:    2441
 k-point     6 :   0.3125 0.0000 0.0000  plane waves:    2437
 k-point     7 :   0.3750 0.0000 0.0000  plane waves:    2424
 k-point     8 :   0.4375 0.0000 0.0000  plane waves:    2412
 k-point     9 :   0.5000 0.0000 0.0000  plane waves:    2416
 k-point    10 :   0.0625 0.0625 0.0000  plane waves:    2449
 k-point    11 :   0.1250 0.0625 0.0000  plane waves:    2447
 k-point    12 :   0.1875 0.0625 0.0000  plane waves:    2441
 k-point    13 :   0.2500 0.0625 0.0000  plane waves:    2443
 k-point    14 :   0.3125 0.0625 0.0000  plane waves:    2440
 k-point    15 :   0.3750 0.0625 0.0000  plane waves:    2428
 k-point    16 :   0.4375 0.0625 0.0000  plane waves:    2419
 k-point    17 :   0.5000 0.0625 0.0000  plane waves:    2428
 k-point    18 :   0.1250 0.1250 0.0000  plane waves:    2442
 k-point    19 :   0.1875 0.1250 0.0000  plane waves:    2438
 k-point    20 :   0.2500 0.1250 0.0000  plane waves:    2428
 k-point    21 :   0.3125 0.1250 0.0000  plane waves:    2427
 k-point    22 :   0.3750 0.1250 0.0000  plane waves:    2426
 k-point    23 :   0.4375 0.1250 0.0000  plane waves:    2434
 k-point    24 :   0.5000 0.1250 0.0000  plane waves:    2436
 k-point    25 :   0.1875 0.1875 0.0000  plane waves:    2430
 k-point    26 :   0.2500 0.1875 0.0000  plane waves:    2422
 k-point    27 :   0.3125 0.1875 0.0000  plane waves:    2429
 k-point    28 :   0.3750 0.1875 0.0000  plane waves:    2432
 k-point    29 :   0.4375 0.1875 0.0000  plane waves:    2435
 k-point    30 :   0.5000 0.1875 0.0000  plane waves:    2440
 k-point    31 :   0.2500 0.2500 0.0000  plane waves:    2430
 k-point    32 :   0.3125 0.2500 0.0000  plane waves:    2437
 k-point    33 :   0.3750 0.2500 0.0000  plane waves:    2433
 k-point    34 :   0.4375 0.2500 0.0000  plane waves:    2437
 k-point    35 :   0.5000 0.2500 0.0000  plane waves:    2444
 k-point    36 :   0.3125 0.3125 0.0000  plane waves:    2416
 k-point    37 :   0.3750 0.3125 0.0000  plane waves:    2427
 k-point    38 :   0.4375 0.3125 0.0000  plane waves:    2430
 k-point    39 :   0.5000 0.3125 0.0000  plane waves:    2426
 k-point    40 :   0.3750 0.3750 0.0000  plane waves:    2434
 k-point    41 :   0.4375 0.3750 0.0000  plane waves:    2431
 k-point    42 :   0.5000 0.3750 0.0000  plane waves:    2430
 k-point    43 :   0.4375 0.4375 0.0000  plane waves:    2440
 k-point    44 :   0.5000 0.4375 0.0000  plane waves:    2440
 k-point    45 :   0.5000 0.5000 0.0000  plane waves:    2464
 k-point    46 :   0.0625 0.0625 0.0625  plane waves:    2442
 k-point    47 :   0.1250 0.0625 0.0625  plane waves:    2447
 k-point    48 :   0.1875 0.0625 0.0625  plane waves:    2443
 k-point    49 :   0.2500 0.0625 0.0625  plane waves:    2433
 k-point    50 :   0.3125 0.0625 0.0625  plane waves:    2430
 k-point    51 :   0.3750 0.0625 0.0625  plane waves:    2433
 k-point    52 :   0.4375 0.0625 0.0625  plane waves:    2423
 k-point    53 :   0.5000 0.0625 0.0625  plane waves:    2438
 k-point    54 :   0.1250 0.1250 0.0625  plane waves:    2435
 k-point    55 :   0.1875 0.1250 0.0625  plane waves:    2438
 k-point    56 :   0.2500 0.1250 0.0625  plane waves:    2430
 k-point    57 :   0.3125 0.1250 0.0625  plane waves:    2424
 k-point    58 :   0.3750 0.1250 0.0625  plane waves:    2432
 k-point    59 :   0.4375 0.1250 0.0625  plane waves:    2432
 k-point    60 :   0.5000 0.1250 0.0625  plane waves:    2438
 k-point    61 :   0.1875 0.1875 0.0625  plane waves:    2422
 k-point    62 :   0.2500 0.1875 0.0625  plane waves:    2431
 k-point    63 :   0.3125 0.1875 0.0625  plane waves:    2429
 k-point    64 :   0.3750 0.1875 0.0625  plane waves:    2432
 k-point    65 :   0.4375 0.1875 0.0625  plane waves:    2430
 k-point    66 :   0.5000 0.1875 0.0625  plane waves:    2432
 k-point    67 :   0.2500 0.2500 0.0625  plane waves:    2429
 k-point    68 :   0.3125 0.2500 0.0625  plane waves:    2428
 k-point    69 :   0.3750 0.2500 0.0625  plane waves:    2426
 k-point    70 :   0.4375 0.2500 0.0625  plane waves:    2435
 k-point    71 :   0.5000 0.2500 0.0625  plane waves:    2430
 k-point    72 :   0.3125 0.3125 0.0625  plane waves:    2424
 k-point    73 :   0.3750 0.3125 0.0625  plane waves:    2428
 k-point    74 :   0.4375 0.3125 0.0625  plane waves:    2438
 k-point    75 :   0.5000 0.3125 0.0625  plane waves:    2436
 k-point    76 :   0.3750 0.3750 0.0625  plane waves:    2439
 k-point    77 :   0.4375 0.3750 0.0625  plane waves:    2429
 k-point    78 :   0.5000 0.3750 0.0625  plane waves:    2436
 k-point    79 :   0.4375 0.4375 0.0625  plane waves:    2435
 k-point    80 :   0.5000 0.4375 0.0625  plane waves:    2434
 k-point    81 :   0.5000 0.5000 0.0625  plane waves:    2444
 k-point    82 :   0.1250 0.1250 0.1250  plane waves:    2445
 k-point    83 :   0.1875 0.1250 0.1250  plane waves:    2434
 k-point    84 :   0.2500 0.1250 0.1250  plane waves:    2421
 k-point    85 :   0.3125 0.1250 0.1250  plane waves:    2431
 k-point    86 :   0.3750 0.1250 0.1250  plane waves:    2428
 k-point    87 :   0.4375 0.1250 0.1250  plane waves:    2430
 k-point    88 :   0.5000 0.1250 0.1250  plane waves:    2448
 k-point    89 :   0.1875 0.1875 0.1250  plane waves:    2423
 k-point    90 :   0.2500 0.1875 0.1250  plane waves:    2428
 k-point    91 :   0.3125 0.1875 0.1250  plane waves:    2431
 k-point    92 :   0.3750 0.1875 0.1250  plane waves:    2434
 k-point    93 :   0.4375 0.1875 0.1250  plane waves:    2436
 k-point    94 :   0.5000 0.1875 0.1250  plane waves:    2440
 k-point    95 :   0.2500 0.2500 0.1250  plane waves:    2421
 k-point    96 :   0.3125 0.2500 0.1250  plane waves:    2430
 k-point    97 :   0.3750 0.2500 0.1250  plane waves:    2441
 k-point    98 :   0.4375 0.2500 0.1250  plane waves:    2434
 k-point    99 :   0.5000 0.2500 0.1250  plane waves:    2432
 k-point   100 :   0.3125 0.3125 0.1250  plane waves:    2429
 k-point   101 :   0.3750 0.3125 0.1250  plane waves:    2436
 k-point   102 :   0.4375 0.3125 0.1250  plane waves:    2438
 k-point   103 :   0.5000 0.3125 0.1250  plane waves:    2434
 k-point   104 :   0.3750 0.3750 0.1250  plane waves:    2442
 k-point   105 :   0.4375 0.3750 0.1250  plane waves:    2429
 k-point   106 :   0.5000 0.3750 0.1250  plane waves:    2428
 k-point   107 :   0.4375 0.4375 0.1250  plane waves:    2434
 k-point   108 :   0.5000 0.4375 0.1250  plane waves:    2428
 k-point   109 :   0.5000 0.5000 0.1250  plane waves:    2432
 k-point   110 :   0.1875 0.1875 0.1875  plane waves:    2428
 k-point   111 :   0.2500 0.1875 0.1875  plane waves:    2434
 k-point   112 :   0.3125 0.1875 0.1875  plane waves:    2430
 k-point   113 :   0.3750 0.1875 0.1875  plane waves:    2429
 k-point   114 :   0.4375 0.1875 0.1875  plane waves:    2440
 k-point   115 :   0.5000 0.1875 0.1875  plane waves:    2436
 k-point   116 :   0.2500 0.2500 0.1875  plane waves:    2431
 k-point   117 :   0.3125 0.2500 0.1875  plane waves:    2428
 k-point   118 :   0.3750 0.2500 0.1875  plane waves:    2435
 k-point   119 :   0.4375 0.2500 0.1875  plane waves:    2435
 k-point   120 :   0.5000 0.2500 0.1875  plane waves:    2434
 k-point   121 :   0.3125 0.3125 0.1875  plane waves:    2430
 k-point   122 :   0.3750 0.3125 0.1875  plane waves:    2437
 k-point   123 :   0.4375 0.3125 0.1875  plane waves:    2423
 k-point   124 :   0.5000 0.3125 0.1875  plane waves:    2432
 k-point   125 :   0.3750 0.3750 0.1875  plane waves:    2428
 k-point   126 :   0.4375 0.3750 0.1875  plane waves:    2424
 k-point   127 :   0.5000 0.3750 0.1875  plane waves:    2430
 k-point   128 :   0.4375 0.4375 0.1875  plane waves:    2424
 k-point   129 :   0.5000 0.4375 0.1875  plane waves:    2424
 k-point   130 :   0.5000 0.5000 0.1875  plane waves:    2440
 k-point   131 :   0.2500 0.2500 0.2500  plane waves:    2425
 k-point   132 :   0.3125 0.2500 0.2500  plane waves:    2435
 k-point   133 :   0.3750 0.2500 0.2500  plane waves:    2438
 k-point   134 :   0.4375 0.2500 0.2500  plane waves:    2431
 k-point   135 :   0.5000 0.2500 0.2500  plane waves:    2422
 k-point   136 :   0.3125 0.3125 0.2500  plane waves:    2435
 k-point   137 :   0.3750 0.3125 0.2500  plane waves:    2429
 k-point   138 :   0.4375 0.3125 0.2500  plane waves:    2425
 k-point   139 :   0.5000 0.3125 0.2500  plane waves:    2416
 k-point   140 :   0.3750 0.3750 0.2500  plane waves:    2416
 k-point   141 :   0.4375 0.3750 0.2500  plane waves:    2420
 k-point   142 :   0.5000 0.3750 0.2500  plane waves:    2426
 k-point   143 :   0.4375 0.4375 0.2500  plane waves:    2417
 k-point   144 :   0.5000 0.4375 0.2500  plane waves:    2424
 k-point   145 :   0.5000 0.5000 0.2500  plane waves:    2424
 k-point   146 :   0.3125 0.3125 0.3125  plane waves:    2431
 k-point   147 :   0.3750 0.3125 0.3125  plane waves:    2423
 k-point   148 :   0.4375 0.3125 0.3125  plane waves:    2419
 k-point   149 :   0.5000 0.3125 0.3125  plane waves:    2412
 k-point   150 :   0.3750 0.3750 0.3125  plane waves:    2425
 k-point   151 :   0.4375 0.3750 0.3125  plane waves:    2421
 k-point   152 :   0.5000 0.3750 0.3125  plane waves:    2418
 k-point   153 :   0.4375 0.4375 0.3125  plane waves:    2419
 k-point   154 :   0.5000 0.4375 0.3125  plane waves:    2418
 k-point   155 :   0.5000 0.5000 0.3125  plane waves:    2416
 k-point   156 :   0.3750 0.3750 0.3750  plane waves:    2413
 k-point   157 :   0.4375 0.3750 0.3750  plane waves:    2408
 k-point   158 :   0.5000 0.3750 0.3750  plane waves:    2416
 k-point   159 :   0.4375 0.4375 0.3750  plane waves:    2423
 k-point   160 :   0.5000 0.4375 0.3750  plane waves:    2414
 k-point   161 :   0.5000 0.5000 0.3750  plane waves:    2416
 k-point   162 :   0.4375 0.4375 0.4375  plane waves:    2416
 k-point   163 :   0.5000 0.4375 0.4375  plane waves:    2420
 k-point   164 :   0.5000 0.5000 0.4375  plane waves:    2428
 k-point   165 :   0.5000 0.5000 0.5000  plane waves:    2440

 maximum and minimum number of plane-waves per node :      2469     2408

 maximum number of plane-waves:      2469
 maximum index in each direction: 
   IXMAX=    8   IYMAX=    8   IZMAX=    8
   IXMIN=   -8   IYMIN=   -8   IZMIN=   -8


 serial   3D FFT for wavefunctions
 parallel 3D FFT for charge:
    minimum data exchange during FFTs selected (reduces bandwidth)


 total amount of memory used by VASP MPI-rank0   523352. kBytes
=======================================================================

   base      :      30000. kBytes
   nonl-proj :      26399. kBytes
   fftplans  :      27775. kBytes
   grid      :      11010. kBytes
   one-center:         24. kBytes
   wavefun   :     428144. kBytes
 
     INWAV:  cpu time      1.6444: real time      1.6444
 Broyden mixing: mesh for mixing (old mesh)
   NGX = 17   NGY = 17   NGZ = 17
  (NGX  = 72   NGY  = 72   NGZ  = 72)
  gives a total of   4913 points

 initial charge density was supplied:
 number of electron      32.0000000 magnetization 
 keeping initial charge density in first step


--------------------------------------------------------------------------------------------------------


 Maximum index for augmentation-charges         36955 (set IRDMAX)


--------------------------------------------------------------------------------------------------------


 First call to EWALD:  gamma=   0.324
 Maximum number of real-space cells 3x 3x 3
 Maximum number of reciprocal cells 3x 3x 3

    FEWALD:  cpu time      0.0007: real time      0.0007


--------------------------------------- Ionic step        1  -------------------------------------------




--------------------------------------- Iteration      1(   1)  ---------------------------------------


    POTLOK:  cpu time      0.0461: real time      0.0402
    SETDIJ:  cpu time      0.0409: real time      0.0409
     EDDAV:  cpu time      2.8811: real time      2.9260
       DOS:  cpu time      0.0535: real time      0.0534
    --------------------------------------------
      LOOP:  cpu time      3.0216: real time      3.0605

 eigenvalue-minimisations  : 43392
 total energy-change (2. order) :-0.4339151E+02  (-0.1240333E-02)
 number of electron      32.0000000 magnetization 
 augmentation part       32.0000000 magnetization 

 Free energy of the ion-electron system (eV)
  ---------------------------------------------------
  alpha Z        PSCENC =        13.17882013
  Ewald energy   TEWEN  =      -907.91971303
  -Hartree energ DENC   =       -60.64964824
  -exchange      EXHF   =         0.00000000
  -V(xc)+E(xc)   XCENC  =       -72.22625453
  PAW double counting   =      3370.63238637    -3230.71212376
  entropy T*S    EENTRO =        -0.00000002
  eigenvalues    EBANDS =        19.78000957
  atomic energy  EATOM  =       824.52501657
  Solvation  Ediel_sol  =         0.00000000
  ---------------------------------------------------
  free energy    TOTEN  =       -43.39150695 eV

  energy without entropy =      -43.39150692  energy(sigma->0) =      -43.39150693


--------------------------------------------------------------------------------------------------------




--------------------------------------- Iteration      1(   2)  ---------------------------------------


     EDDAV:  cpu time      3.0331: real time      3.0328
       DOS:  cpu time      0.0662: real time      0.0662
    --------------------------------------------
      LOOP:  cpu time      3.0993: real time      3.0990

 eigenvalue-minimisations  : 52248
 total energy-change (2. order) :-0.2262728E-05  (-0.2177725E-05)
 number of electron      32.0000000 magnetization 
 augmentation part       32.0000000 magnetization 

 Free energy of the ion-electron system (eV)
  ---------------------------------------------------
  alpha Z        PSCENC =        13.17882013
  Ewald energy   TEWEN  =      -907.91971303
  -Hartree energ DENC   =       -60.64964824
  -exchange      EXHF   =         0.00000000
  -V(xc)+E(xc)   XCENC  =       -72.22625453
  PAW double counting   =      3370.63238637    -3230.71212376
  entropy T*S    EENTRO =        -0.00000002
  eigenvalues    EBANDS =        19.78000730
  atomic energy  EATOM  =       824.52501657
  Solvation  Ediel_sol  =         0.00000000
  ---------------------------------------------------
  free energy    TOTEN  =       -43.39150921 eV

  energy without entropy =      -43.39150919  energy(sigma->0) =      -43.39150920


--------------------------------------------------------------------------------------------------------




--------------------------------------- Iteration      1(   3)  ---------------------------------------


     EDDAV:  cpu time      2.9012: real time      2.9009
       DOS:  cpu time      0.0717: real time      0.0717
    --------------------------------------------
      LOOP:  cpu time      2.9729: real time      2.9726

 eigenvalue-minimisations  : 49096
 total energy-change (2. order) :-0.3954962E-07  (-0.3888494E-07)
 number of electron      32.0000000 magnetization 
 augmentation part       32.0000000 magnetization 

 Free energy of the ion-electron system (eV)
  ---------------------------------------------------
  alpha Z        PSCENC =        13.17882013
  Ewald energy   TEWEN  =      -907.91971303
  -Hartree energ DENC   =       -60.64964824
  -exchange      EXHF   =         0.00000000
  -V(xc)+E(xc)   XCENC  =       -72.22625453
  PAW double counting   =      3370.63238637    -3230.71212376
  entropy T*S    EENTRO =        -0.00000002
  eigenvalues    EBANDS =        19.78000727
  atomic energy  EATOM  =       824.52501657
  Solvation  Ediel_sol  =         0.00000000
  ---------------------------------------------------
  free energy    TOTEN  =       -43.39150925 eV

  energy without entropy =      -43.39150923  energy(sigma->0) =      -43.39150924


--------------------------------------------------------------------------------------------------------




--------------------------------------- Iteration      1(   4)  ---------------------------------------


     EDDAV:  cpu time      2.8130: real time      2.8126
       DOS:  cpu time      0.0758: real time      0.0758
    --------------------------------------------
      LOOP:  cpu time      2.8889: real time      2.8885

 eigenvalue-minimisations  : 47112
 total energy-change (2. order) :-0.4857270E-10  (-0.4626459E-09)
 number of electron      32.0000000 magnetization 
 augmentation part       32.0000000 magnetization 

 Free energy of the ion-electron system (eV)
  ---------------------------------------------------
  alpha Z        PSCENC =        13.17882013
  Ewald energy   TEWEN  =      -907.91971303
  -Hartree energ DENC   =       -60.64964824
  -exchange      EXHF   =         0.00000000
  -V(xc)+E(xc)   XCENC  =       -72.22625453
  PAW double counting   =      3370.63238637    -3230.71212376
  entropy T*S    EENTRO =        -0.00000002
  eigenvalues    EBANDS =        19.78000727
  atomic energy  EATOM  =       824.52501657
  Solvation  Ediel_sol  =         0.00000000
  ---------------------------------------------------
  free energy    TOTEN  =       -43.39150925 eV

  energy without entropy =      -43.39150923  energy(sigma->0) =      -43.39150924


--------------------------------------------------------------------------------------------------------




--------------------------------------- Iteration      1(   5)  ---------------------------------------


     EDDAV:  cpu time      2.7885: real time      2.7877
       DOS:  cpu time      0.0711: real time      0.0710
    CHARGE:  cpu time      0.1268: real time      0.1268
    MIXING:  cpu time      0.0036: real time      0.0036
    --------------------------------------------
      LOOP:  cpu time      2.9901: real time      2.9890

 eigenvalue-minimisations  : 46256
 total energy-change (2. order) :-0.3599894E-09  (-0.3173925E-10)
 number of electron      32.0000000 magnetization 
 augmentation part       -1.8336240 magnetization 

 Broyden mixing:
  rms(total) = 0.28748E-02    rms(broyden)= 0.28741E-02
  rms(prec ) = 0.29248E-02
  weight for this iteration     100.00

 Free energy of the ion-electron system (eV)
  ---------------------------------------------------
  alpha Z        PSCENC =        13.17882013
  Ewald energy   TEWEN  =      -907.91971303
  -Hartree energ DENC   =       -60.64964824
  -exchange      EXHF   =         0.00000000
  -V(xc)+E(xc)   XCENC  =       -72.22625453
  PAW double counting   =      3370.63238637    -3230.71212376
  entropy T*S    EENTRO =        -0.00000002
  eigenvalues    EBANDS =        19.78000726
  atomic energy  EATOM  =       824.52501657
  Solvation  Ediel_sol  =         0.00000000
  ---------------------------------------------------
  free energy    TOTEN  =       -43.39150925 eV

  energy without entropy =      -43.39150923  energy(sigma->0) =      -43.39150924


--------------------------------------------------------------------------------------------------------




--------------------------------------- Iteration      1(   6)  ---------------------------------------


    POTLOK:  cpu time      0.0060: real time      0.0060
    SETDIJ:  cpu time      0.0355: real time      0.0355
    EDDIAG:  cpu time      0.3106: real time      0.3105
  RMM-DIIS:  cpu time      1.3733: real time      1.3820
    ORTHCH:  cpu time      0.1196: real time      0.1195
       DOS:  cpu time      0.0709: real time      0.0709
    --------------------------------------------
      LOOP:  cpu time      1.9158: real time      1.9244

 eigenvalue-minimisations  : 38059
 total energy-change (2. order) :-0.1479068E-06  (-0.6640101E-08)
 number of electron      32.0000000 magnetization 
 augmentation part       -1.8336240 magnetization 

 Free energy of the ion-electron system (eV)
  ---------------------------------------------------
  alpha Z        PSCENC =        13.17882013
  Ewald energy   TEWEN  =      -907.91971303
  -Hartree energ DENC   =       -60.65384460
  -exchange      EXHF   =         0.00000000
  -V(xc)+E(xc)   XCENC  =       -72.22602381
  PAW double counting   =      3365.51402499    -3225.59395872
  entropy T*S    EENTRO =        -0.00000002
  eigenvalues    EBANDS =        19.78416910
  atomic energy  EATOM  =       824.52501657
  Solvation  Ediel_sol  =         0.00000000
  ---------------------------------------------------
  free energy    TOTEN  =       -43.39150940 eV

  energy without entropy =      -43.39150937  energy(sigma->0) =      -43.39150938


--------------------------------------------------------------------------------------------------------




 average (electrostatic) potential at core
  the test charge radii are     0.9892
  (the norm of the test charge is              1.0000)
       1 -83.4775       2 -83.4775       3 -83.4775       4 -83.4775       5 -83.4775
       6 -83.4775       7 -83.4775       8 -83.4775
 
 
 
 E-fermi :   5.9250     XC(G=0):  -9.3294     alpha+bet :-11.7372

 val. band max:        5.6211561359   @ k =   0.0000   0.0000   0.0000
 cond. band min:       6.2350164611   @ k =   0.1875   0.0000   0.0000
 fundamental gap:      0.6138603252
 Fermi energy:         5.9250103326

 k-point     1 :       0.0000    0.0000    0.0000
  band No.  band energies     occupation 
      1      -6.1975      2.00000
      2      -2.1273      2.00000
      3      -2.1273      2.00000
      4      -2.1273      2.00000
      5      -2.1273      2.00000
      6      -2.1273      2.00000
      7      -2.1273      2.00000
      8       2.8251      2.00000
      9       2.8251      2.00000
     10       2.8251      2.00000
     11       2.8251      2.00000
     12       2.8251      2.00000
     13       2.8251      2.00000
     14       5.6212      1.99998
     15       5.6212      1.99998
     16       5.6212      1.99998
     17       6.3730      0.00000
     18       6.3730      0.00000
     19       6.3730      0.00000
     20       6.3730      0.00000
     21       6.3730      0.00000
     22       6.3730      0.00000
     23       8.1789      0.00000
     24       8.1789      0.00000
     25       8.1789      0.00000
     26       8.7592      0.00000
     27      13.3344      0.00000
     28      13.3344      0.00000
     29      13.5003      0.00000
     30      15.5636      0.00000
     31      15.5636      0.00000
     32      15.5636      0.00000
     33      15.5636      0.00000
     34      15.5636      0.00000
     35      15.5636      0.00000
     36      16.5363      0.00000
     37      16.5363      0.00000
     38      16.5363      0.00000
     39      16.5363      0.00000
     40      16.5363      0.00000
     41      16.5363      0.00000
     42      16.8080      0.00000
     43      16.8080      0.00000
     44      16.8080      0.00000
     45      18.0734      0.00000
     46      18.0734      0.00000
     47      18.0734      0.00000
     48      18.0734      0.00000
     49      18.0734      0.00000
     50      18.0734      0.00000
     51      18.4295      0.00000
     52      18.4295      0.00000
     53      18.4295      0.00000
     54      18.4295      0.00000
     55      18.4295      0.00000
     56      18.4295      0.00000
     57      20.8982      0.00000
     58      24.3136      0.00000
     59      24.3136      0.00000
     60      24.3136      0.00000
     61      24.3136      0.00000
     62      24.3136      0.00000
     63      24.3136      0.00000
     64      25.1847      0.00000
     65      25.1847      0.00000
     66      25.1847      0.00000
     67      25.1847      0.00000
     68      25.1847      0.00000
     69      25.1847      0.00000
     70      25.6422      0.00000
     71      25.6422      0.00000
     72      25.6422      0.00000
     73      25.6422      0.00000
     74      25.6422      0.00000
     75      25.6422      0.00000
     76      26.8888      0.00000
     77      26.8888      0.00000
     78      26.8888      0.00000
     79      26.8888      0.00000
     80      26.8888      0.00000
     81      26.8888      0.00000
     82      28.5089      0.00000
     83      28.5089      0.00000
     84      28.5089      0.00000
     85      29.6049      0.00000
     86      29.6049      0.00000
     87      30.8558      0.00000
     88      30.8558      0.00000
     89      30.8558      0.00000
     90      30.8558      0.00000
     91      30.8558      0.00000
     92      30.8558      0.00000
     93      31.0226      0.00000
     94      31.0226      0.00000
     95      31.0226      0.00000
     96      34.5491      0.00000
     97      34.5491      0.00000
     98      34.5491      0.00000
     99      34.7388      0.00000
    100      34.7388      0.00000
    101      34.7388      0.00000
    102      34.7388      0.00000
    103      34.7389      0.00000
    104      34.7389      0.00000
    105      39.4331      0.00000
    106      39.4331      0.00000
    107      39.4332      0.00000
    108      39.4332      0.00000
    109      39.4333      0.00000
    110      39.4334      0.00000
    111      39.5911      0.00000
    112      39.5911      0.00000
    113      39.5912      0.00000
    114      39.5912      0.00000
    115      39.5913      0.00000
    116      39.5916      0.00000
    117      40.1768      0.00000
    118      40.1773      0.00000
    119      40.1784      0.00000
    120      41.0777      0.00000
    121      41.0778      0.00000
    122      41.0792      0.00000
    123      41.0804      0.00000
    124      41.0839      0.00000
    125      41.0985      0.00000
    126      43.4059      0.00000
    127      43.4174      0.00000
    128      43.4479      0.00000

 k-point     2 :       0.0625    0.0000    0.0000
  band No.  band energies     occupation 
      1      -6.1807      2.00000
      2      -2.5919      2.00000
      3      -2.1219      2.00000
      4      -2.1219      2.00000
      5      -2.1219      2.00000
      6      -2.1219      2.00000
      7      -1.6427      2.00000
      8       2.7760      2.00000
      9       2.7760      2.00000
     10       2.7760      2.00000
     11       2.7760      2.00000
     12       2.8403      2.00000
     13       2.8403      2.00000
     14       5.5023      2.00000
     15       5.5509      2.00000
     16       5.5509      2.00000
     17       6.2837      0.00000
     18       6.4649      0.00000
     19       6.4649      0.00000
     20       6.4649      0.00000
     21       6.4649      0.00000
     22       6.5081      0.00000
     23       8.1374      0.00000
     24       8.2698      0.00000
     25       8.2698      0.00000
     26       8.8753      0.00000
     27      13.1996      0.00000
     28      13.3531      0.00000
     29      13.5751      0.00000
     30      15.2591      0.00000
     31      15.2591      0.00000
     32      15.4057      0.00000
[...]
  497              overl1_c                              0.000513                   1008   6
  498              fftext_mpi                            0.260248                   1008   6
  499                fft3d_mpi                             0.257417                 1008   7
  500                  fft3d                                 0.257027               1008   8
  501            m_sumb_d                              0.013632                        6   5
  502          setwdes                               0.000037                        189   4
  503          m_sumb_d                              0.001080                          9   4
  504          eddiag_lr                             0.600417                          3   4
  505            setwdes                               0.011825                      129   5
  506            overl                                 0.000660                       63   5
  507            redis_proj                            0.111854                      441   5
  508              m_alltoall_d                          0.075630                  13104   6
  509            redis_pw                              0.276759                      378   5
  510              m_alltoall_d                          0.069830                  12096   6
  511            m_sumb_d                              0.016704                      126   5
  512          overl1                                0.000830                       2016   4
  513        setwdes                               0.000047                          126   3
  514        redis_pw                              0.104488                          189   3
  515          m_alltoall_d                          0.066340                       9072   4
  516        redis_proj                            0.032671                          189   3
  517          m_alltoall_d                          0.030049                       9072   4
  518        m_sumb_d                              0.282464                           87   3
  519        m_sumb_s                              0.025028                            1   3
  520        densta                                0.067297                            1   3
  521          m_sumb_d                              0.009540                        169   4
  522          setwdes                               0.000000                          1   4
  523      densta                                0.111810                              1   2
  524        m_sumb_d                              0.045887                          297   3
  525        setwdes                               0.000002                            1   3
 
 Flat profile
 ============
 
             routine name                   CPU           calls
 ---------------------------------------------------------------
 lr_optic                               51.796050           1
 total_time                             10.451633           1
 eddav                                   2.804738           5
 init_acc                                2.511945           1
 lapack                                  2.427910        5460
 redis_pw                                2.268903       59892
 m_sumb_d                                2.160083       19161
 strenl                                  1.697684           1
 m_alltoall_d                            1.492491      231168
 spher                                   0.965386          26
 wfinit                                  0.954731           1
 fft3d                                   0.891227       54892
 acc_cufft_makeplan                      0.772246          19
 proj1_acc                               0.703653       14784
 eccp                                    0.687817       11818
 redis_proj                              0.621122       75012
 kpar_sync_all                           0.586512           2
 m_bcast_z                               0.578997       30224
 densta                                  0.497576           8
 orth1                                   0.442372       16716
 vnlac0                                  0.438540        3024
 hamiltmu                                0.432869        6075
 dfftw_execute                           0.412953         243
 overl1                                  0.409100       30414
 w1_copy                                 0.371886       72750
 setdij_                                 0.328711          31
 fornl                                   0.304395           1
 overl                                   0.299053       37107
 setup_precond                           0.288914        8064
 vnlac0_acc                              0.287383       24250
 fftwav                                  0.244843       28290
 newband                                 0.221976        6201
 proall                                  0.193043           2
 ggemm                                   0.190022        7140
 m_max_i                                 0.186153          22
 eddiag_lr                               0.182614           3
 w1_gemv                                 0.160157        4264
 projmu_acc                              0.155301        4395
 i2                                      0.152496         615
 orthch                                  0.141255           3
 elmin                                   0.133223           1
 setwdes                                 0.129449        1505
 kinhamil                                0.121129       25594
 fft3d_mpi                               0.117783       26736
 vhamil                                  0.114492       25594
 eccp_nl                                 0.112061        3754
 fftext_mpi                              0.111806       26602
 m_alltoallv_z                           0.110456         140
 vnlac0|dgemv                            0.110030       24192
 cnorma                                  0.098493        3754
 soft_charge                             0.095323           2
 eddiag                                  0.093747           1
 apply_precond                           0.093703       18596
 potlok                                  0.071915           4
 proj                                    0.068792          42
 m_bcast_d                               0.065516       11006
 lrf_rphi0                               0.064635           3
 acc_init_cublas                         0.061975           1
 spher_der                               0.050851           3
 phase                                   0.049276         442
 proj1                                   0.047172        1008
 choleski                                0.045097          63
 map_scatter                             0.044865         140
 force_and_stress                        0.042100           1
 fftwav_mpi                              0.040860       28290
 map_gather                              0.039829         140
 hamilt_local                            0.038261        1344
 w1_dscal                                0.037661        5608
 w1_dot                                  0.036912        1344
 depsum                                  0.035747           2
 w1_daxpy                                0.030933        4820
 acc_init_cusolver                       0.030482           1
 hamiltmu_commutator                     0.026159         252
 m_sumb_s                                0.025028           1
 lrf_commutator                          0.024708           3
 augmentation_charge                     0.024001           2
 lincom                                  0.019350         189
 eddrmm                                  0.018636           1
 inisym                                  0.013836           1
 fftbas_plan_mpi                         0.013747         134
 fftwav_w1                               0.010830       27282
 w1_gaxpy                                0.010611        2132
 i3                                      0.009021         615
 pw_charge                               0.008495         344
 zhegv                                   0.007180        1066
 set_charge                              0.007008           2
 stufak                                  0.005496           2
 w1_projall                              0.004985        4395
 brmix                                   0.003526           2
 truncate_high_frequency_w1              0.002903       32314
 pothar                                  0.002427           5
 setg0                                   0.001671           3
 i1                                      0.001519         615
 strelo                                  0.001418           1
 forloc                                  0.001299           1
 bandgap                                 0.001119           1
 rad_lda_xc                              0.001115           8
 potxc                                   0.001082           1
 strehar                                 0.001017           1
 forhar                                  0.000543           2
 strkin                                  0.000539           1
 overl1_c                                0.000513        1008
 map_backward                            0.000507         134
 map_forward                             0.000487         134
 rad_gga_xc                              0.000457           8
 posmap                                  0.000291           2
 splcof                                  0.000278          18
 chggra                                  0.000211           1
 set_dd_paw                              0.000190           5
 fewald                                  0.000183           1
 rsp                                     0.000156           1
 brgrid                                  0.000119           1
 broyd                                   0.000107           2
 fftbrc_mpi                              0.000098         134
 rad_pot                                 0.000096           8
 brget                                   0.000050          17
 brsav                                   0.000037          11
 brpre                                   0.000034           2
 crpa_reader                             0.000027           1
 fordep                                  0.000022           1
 acc_cufft_makeplans                     0.000021           3
 fft_gq                                  0.000019           2
 vectorpot                               0.000018           3
 set_dd_magatom                          0.000017           4
 rcp                                     0.000016           1
 rad_proj                                0.000010           4
 set_rsgf_all                            0.000005           5
 rad_aug_proj                            0.000002           2
 shift_bands_between_low_high            0.000001          21
 rad_pot_weight                          0.000001           4
 rad_aug_charge                          0.000001           1
 redis_pw_over_bands                     0.000000           1
 rotate_active_occupied_orbital          0.000000           1
 splval                                  0.000000           1
 ---------------------------------------------------------------
  summed up times     93.31255507469177     
 
 Accumulative profile
 ====================
 
             routine name                   CPU           calls
 ---------------------------------------------------------------
 total_time                             93.312555           1
 lr_optic                               54.727188           1
 elmin                                  17.042126           1
 eddav                                  14.439617           5
 force_and_stress                        4.395282           1
 strenl                                  3.087853           1
 redis_pw                                2.992574       59892
 init_acc                                2.511955           1
 lapack                                  2.427910        5460
 lrf_rphi0                               2.183816           3
 m_sumb_d                                2.160083       19161
 hamiltmu                                1.593675        6075
 newband                                 1.566201        6201
 m_alltoall_d                            1.492491      231168
 redis_proj                              1.389943       75012
 eddrmm                                  1.382008           1
 wfinit                                  1.370889           1
 lrf_commutator                          1.229577           3
 fft3d_mpi                               1.173658       26736
 setdij_                                 0.999557          31
 spher                                   0.965386          26
 fft3d                                   0.891227       54892
 hamiltmu_commutator                     0.883673         252
 acc_cufft_makeplans                     0.772267           3
 acc_cufft_makeplan                      0.772246          19
 fftwav_mpi                              0.743997       28290
 proj1_acc                               0.703653       14784
 fftwav                                  0.703137       28290
 eccp                                    0.687817       11818
 orthch                                  0.647947           3
 fftbrc_mpi                              0.622943         134
 fftbas_plan_mpi                         0.622845         134
 eddiag_lr                               0.600417           3
 kpar_sync_all                           0.587044           2
 densta                                  0.582416           8
 m_bcast_z                               0.578997       30224
 fftext_mpi                              0.554136       26602
 vnlac0                                  0.548570        3024
 i3                                      0.496983         615
 fftwav_w1                               0.479948       27282
 i2                                      0.468385         615
 orth1                                   0.442372       16716
 kinhamil                                0.415017       25594
 dfftw_execute                           0.412953         243
 overl1                                  0.409100       30414
 w1_copy                                 0.371886       72750
 proall                                  0.363047           2
 eddiag                                  0.310444           1
 fornl                                   0.308986           1
 overl                                   0.299053       37107
 setup_precond                           0.288914        8064
 vnlac0_acc                              0.287383       24250
 spher_der                               0.287241           3
 set_charge                              0.244389           2
 cnorma                                  0.210554        3754
 w1_gemv                                 0.197681        4264
 ggemm                                   0.190022        7140
 fordep                                  0.187516           1
 m_max_i                                 0.186153          22
 proj                                    0.166992          42
 w1_projall                              0.160286        4395
 map_forward                             0.155990         134
 projmu_acc                              0.155301        4395
 soft_charge                             0.134928           2
 setwdes                                 0.129449        1505
 vhamil                                  0.114492       25594
 potlok                                  0.113615           4
 eccp_nl                                 0.112061        3754
 m_alltoallv_z                           0.110456         140
 vnlac0|dgemv                            0.110030       24192
 apply_precond                           0.093703       18596
 augmentation_charge                     0.066085           2
 m_bcast_d                               0.065516       11006
 hamilt_local                            0.064081        1344
 acc_init_cublas                         0.061975           1
 phase                                   0.049276         442
 proj1                                   0.047172        1008
 choleski                                0.045097          63
 map_scatter                             0.044865         140
 map_backward                            0.040154         134
 map_gather                              0.039829         140
 w1_dscal                                0.037661        5608
 w1_dot                                  0.036912        1344
 depsum                                  0.035959           2
 w1_daxpy                                0.030933        4820
 acc_init_cusolver                       0.030482           1
 m_sumb_s                                0.025028           1
 lincom                                  0.019350         189
 inisym                                  0.014127           1
 set_dd_paw                              0.013644           5
 i1                                      0.012944         615
 w1_gaxpy                                0.010611        2132
 pw_charge                               0.008495         344
 brmix                                   0.007588           2
 zhegv                                   0.007180        1066
 stufak                                  0.005496           2
 truncate_high_frequency_w1              0.002903       32314
 potxc                                   0.002886           1
 pothar                                  0.002449           5
 forloc                                  0.002077           1
 setg0                                   0.001671           3
 rad_pot                                 0.001668           8
 strelo                                  0.001485           1
 fft_gq                                  0.001377           2
 bandgap                                 0.001119           1
 rad_lda_xc                              0.001115           8
 strehar                                 0.001020           1
 chggra                                  0.000754           1
 fewald                                  0.000647           1
 strkin                                  0.000593           1
 forhar                                  0.000553           2
 overl1_c                                0.000513        1008
 rad_gga_xc                              0.000457           8
 posmap                                  0.000291           2
 splcof                                  0.000278          18
 broyd                                   0.000218           2
 rsp                                     0.000156           1
 brgrid                                  0.000134           1
 brget                                   0.000050          17
 brsav                                   0.000037          11
 brpre                                   0.000034           2
 crpa_reader                             0.000027           1
 vectorpot                               0.000018           3
 set_dd_magatom                          0.000017           4
 rcp                                     0.000016           1
 rad_proj                                0.000010           4
 set_rsgf_all                            0.000005           5
 rad_aug_proj                            0.000002           2
 shift_bands_between_low_high            0.000001          21
 rad_pot_weight                          0.000001           4
 rad_aug_charge                          0.000001           1
 redis_pw_over_bands                     0.000000           1
 rotate_active_occupied_orbital          0.000000           1
 splval                                  0.000000           1
 ---------------------------------------------------------------
 
Profiling took   0.182944  0.079745  0.003661  0.003581 seconds
Profiling took   0.100560 seconds
