Cu111-vac15
1.0
25.458799 0.000000 0.000000
0.000000 13.228780 0.000000
0.000000 0.000000 25.000000
     C    Cu     H
    54     243      12  
Direct configuration= 0
 0.000000  0.382508 0.330277
 0.000000  0.619843 0.330167
 0.098462  0.388023 0.332889
 0.098448  0.614178 0.332926
 0.901538  0.388023 0.332889
 0.901552  0.614178 0.332926
 0.048639  0.346223 0.351731
 0.048626  0.655944 0.351776
 0.951361  0.346223 0.351731
 0.951374  0.655944 0.351776
 0.143740  0.360246 0.362554
 0.143750  0.641978 0.362551
 0.856260  0.360246 0.362554
 0.856250  0.641978 0.362551
 0.049038  0.259068 0.386354
 0.049036  0.743074 0.386407
 0.950962  0.259068 0.386354
 0.950964  0.743074 0.386407
 0.146768  0.262855 0.388913
 0.146783  0.739297 0.388922
 0.853232  0.262855 0.388913
 0.853217  0.739297 0.388922
 0.000000  0.209946 0.397827
 -0.000000  0.792197 0.397853
 0.098313  0.209898 0.397098
 0.098321  0.792218 0.397113
 0.901687  0.209898 0.397098
 0.901679  0.792218 0.397113
 0.195164  0.212433 0.395435
 0.195184  0.789656 0.395461
 0.804836  0.212433 0.395435
 0.804816  0.789656 0.395461
 0.000000  0.104915 0.410305
 0.000000  0.897232 0.410287
 0.098923  0.105154 0.408590
 0.098925  0.896961 0.408588
 0.901077  0.105154 0.408590
 0.901075  0.896961 0.408588
 0.196673  0.107660 0.406546
 0.196682  0.894419 0.406560
 0.803327  0.107660 0.406546
 0.803318  0.894419 0.406560
 0.049560  0.053315 0.412057
 0.049562  0.948799 0.412052
 0.950440  0.053315 0.412057
 0.950438  0.948799 0.412052
 0.148151  0.053707 0.410867
 0.148154  0.948373 0.410868
 0.851849  0.053707 0.410867
 0.851846  0.948373 0.410868
 0.244857  0.052370 0.408547
 0.244861  0.949701 0.408551
 0.755143  0.052370 0.408547
 0.755139  0.949701 0.408551
 0.000000  0.000000 0.000000
 0.000000  0.334060 0.000000
 0.000000  0.668120 0.000000
 0.400000  0.000000 0.000000
 0.400000  0.334060 0.000000
 0.400000  0.668120 0.000000
 0.450000  0.835150 0.000000
 0.450000  0.167030 0.000000
 0.450000  0.501090 0.000000
 0.050000  0.835150 0.000000
 0.050000  0.167030 0.000000
 0.050000  0.501090 0.000000
 0.500000  0.000000 0.000000
 0.500000  0.334060 0.000000
 0.500000  0.668120 0.000000
 0.550000  0.835150 0.000000
 0.550000  0.167030 0.000000
 0.550000  0.501090 0.000000
 0.600000  0.000000 0.000000
 0.600000  0.334060 0.000000
 0.600000  0.668120 0.000000
 0.650000  0.835150 0.000000
 0.650000  0.167030 0.000000
 0.650000  0.501090 0.000000
 0.700000  0.000000 0.000000
 0.700000  0.334060 0.000000
 0.700000  0.668120 0.000000
 0.750000  0.835150 0.000000
 0.750000  0.167030 0.000000
 0.750000  0.501090 0.000000
 0.800000  0.000000 0.000000
 0.800000  0.334060 0.000000
 0.800000  0.668120 0.000000
 0.850000  0.835150 0.000000
 0.850000  0.167030 0.000000
 0.850000  0.501090 0.000000
 0.900000  0.000000 0.000000
 0.900000  0.334060 0.000000
 0.900000  0.668120 0.000000
 0.950000  0.835150 0.000000
 0.950000  0.167030 0.000000
 0.950000  0.501090 0.000000
 0.100000  0.000000 0.000000
 0.100000  0.334060 0.000000
 0.100000  0.668120 0.000000
 0.150000  0.835150 0.000000
 0.150000  0.167030 0.000000
 0.150000  0.501090 0.000000
 0.200000  0.000000 0.000000
 0.200000  0.334060 0.000000
 0.200000  0.668120 0.000000
 0.250000  0.835150 0.000000
 0.250000  0.167030 0.000000
 0.250000  0.501090 0.000000
 0.300000  0.000000 0.000000
 0.300000  0.334060 0.000000
 0.300000  0.668120 0.000000
 0.350000  0.835150 0.000000
 0.350000  0.167030 0.000000
 0.350000  0.501090 0.000000
 0.000000  0.890827 0.083148
 0.000000  0.222707 0.083148
 0.000000  0.556767 0.083148
 0.400000  0.890827 0.083148
 0.400000  0.222707 0.083148
 0.400000  0.556767 0.083148
 0.450000  0.389737 0.083148
 0.450000  0.055677 0.083148
 0.450000  0.723797 0.083148
 0.050000  0.389737 0.083148
 0.050000  0.055677 0.083148
 0.050000  0.723797 0.083148
 0.500000  0.890827 0.083148
 0.500000  0.222707 0.083148
 0.500000  0.556767 0.083148
 0.550000  0.389737 0.083148
 0.550000  0.055677 0.083148
 0.550000  0.723797 0.083148
 0.600000  0.890827 0.083148
 0.600000  0.222707 0.083148
 0.600000  0.556767 0.083148
 0.650000  0.389737 0.083148
 0.650000  0.055677 0.083148
 0.650000  0.723797 0.083148
 0.700000  0.890827 0.083148
 0.700000  0.222707 0.083148
 0.700000  0.556767 0.083148
 0.750000  0.389737 0.083148
 0.750000  0.055677 0.083148
 0.750000  0.723797 0.083148
 0.800000  0.890827 0.083148
 0.800000  0.222707 0.083148
 0.800000  0.556767 0.083148
 0.850000  0.389737 0.083148
 0.850000  0.055677 0.083148
 0.850000  0.723797 0.083148
 0.900000  0.890827 0.083148
 0.900000  0.222707 0.083148
 0.900000  0.556767 0.083148
 0.950000  0.389737 0.083148
 0.950000  0.055677 0.083148
 0.950000  0.723797 0.083148
 0.100000  0.890827 0.083148
 0.100000  0.222707 0.083148
 0.100000  0.556767 0.083148
 0.150000  0.389737 0.083148
 0.150000  0.055677 0.083148
 0.150000  0.723797 0.083148
 0.200000  0.890827 0.083148
 0.200000  0.222707 0.083148
 0.200000  0.556767 0.083148
 0.250000  0.389737 0.083148
 0.250000  0.055677 0.083148
 0.250000  0.723797 0.083148
 0.300000  0.890827 0.083148
 0.300000  0.222707 0.083148
 0.300000  0.556767 0.083148
 0.350000  0.389737 0.083148
 0.350000  0.055677 0.083148
 0.350000  0.723797 0.083148
 0.000000  0.778220 0.171936
 -0.000000  0.111688 0.169644
 -0.000000  0.447295 0.171759
 0.400268  0.778048 0.170049
 0.400354  0.111096 0.169883
 0.400247  0.445821 0.169602
 0.448895  0.946562 0.169358
 0.448824  0.277839 0.170475
 0.448771  0.612143 0.169617
 0.050592  0.947250 0.170120
 0.050602  0.278398 0.172218
 0.050860  0.612943 0.171531
 0.500000  0.778222 0.170541
 0.500000  0.111905 0.170243
 0.500000  0.446966 0.170223
 0.551105  0.946562 0.169358
 0.551176  0.277838 0.170475
 0.551229  0.612143 0.169617
 0.599732  0.778048 0.170048
 0.599646  0.111096 0.169883
 0.599753  0.445821 0.169602
 0.650818  0.946815 0.170206
 0.650599  0.277193 0.170267
 0.650713  0.611782 0.169940
 0.698965  0.778337 0.170021
 0.698843  0.110477 0.169346
 0.698954  0.444774 0.169164
 0.750065  0.948095 0.169608
 0.749769  0.276583 0.168624
 0.749794  0.611997 0.168960
 0.800391  0.779965 0.169703
 0.800432  0.111283 0.168949
 0.800847  0.446000 0.168644
 0.849776  0.947857 0.169553
 0.849860  0.277295 0.171180
 0.849573  0.612916 0.169661
 0.900066  0.778593 0.171555
 0.900335  0.111110 0.169437
 0.900846  0.446388 0.171293
 0.949408  0.947250 0.170120
 0.949398  0.278398 0.172218
 0.949140  0.612943 0.171531
 0.099934  0.778593 0.171555
 0.099665  0.111110 0.169437
 0.099153  0.446388 0.171293
 0.150224  0.947857 0.169553
 0.150140  0.277295 0.171180
 0.150427  0.612916 0.169661
 0.199609  0.779965 0.169703
 0.199568  0.111283 0.168949
 0.199153  0.446000 0.168644
 0.249935  0.948095 0.169608
 0.250231  0.276583 0.168623
 0.250206  0.611997 0.168960
 0.301036  0.778337 0.170021
 0.301157  0.110477 0.169346
 0.301046  0.444774 0.169164
 0.349182  0.946815 0.170206
 0.349401  0.277193 0.170267
 0.349287  0.611782 0.169940
 -0.000000  0.000260 0.254375
 0.000000  0.337213 0.255080
 0.000000  0.666001 0.255044
 0.400099  0.000662 0.253833
 0.400075  0.335883 0.253768
 0.400151  0.667323 0.254161
 0.448899  0.836329 0.253499
 0.448888  0.166828 0.254255
 0.448932  0.501596 0.254195
 0.051131  0.837369 0.253803
 0.051216  0.164925 0.253904
 0.051355  0.501339 0.260349
 0.500000  0.000565 0.253024
 0.500000  0.336064 0.253495
 0.500000  0.666862 0.253730
 0.551101  0.836329 0.253499
 0.551111  0.166829 0.254255
 0.551068  0.501596 0.254195
 0.599900  0.000662 0.253833
 0.599925  0.335883 0.253768
 0.599849  0.667323 0.254161
 0.650532  0.836691 0.253846
 0.650575  0.166459 0.254159
 0.650632  0.501587 0.254199
 0.699747  0.000743 0.255104
 0.699053  0.335323 0.253799
 0.699006  0.667807 0.254448
 0.749546  0.838005 0.252250
 0.749437  0.165482 0.252166
 0.749341  0.501837 0.253049
 0.800794  0.000684 0.252947
 0.797759  0.335677 0.251853
 0.797849  0.667841 0.252287
 0.848943  0.837188 0.253775
 0.848908  0.165676 0.254141
 0.849015  0.501705 0.253797
 0.900259  0.000342 0.254533
 0.899124  0.336577 0.256186
 0.899042  0.666545 0.256125
 0.948869  0.837369 0.253803
 0.948784  0.164925 0.253905
 0.948645  0.501339 0.260349
 0.099741  0.000342 0.254533
 0.100876  0.336577 0.256186
 0.100958  0.666545 0.256125
 0.151057  0.837188 0.253775
 0.151092  0.165676 0.254141
 0.150985  0.501705 0.253797
 0.199206  0.000684 0.252947
 0.202241  0.335677 0.251853
 0.202151  0.667841 0.252287
 0.250454  0.838004 0.252250
 0.250563  0.165482 0.252166
 0.250659  0.501837 0.253049
 0.300253  0.000743 0.255104
 0.300947  0.335323 0.253799
 0.300994  0.667807 0.254448
 0.349468  0.836691 0.253846
 0.349424  0.166459 0.254159
 0.349368  0.501587 0.254199
 -0.000000  0.501315 0.389096
 0.101915  0.501173 0.391722
 0.898084  0.501173 0.391722
 0.182581  0.392260 0.354913
 0.182555  0.609769 0.354953
 0.817419  0.392260 0.354913
 0.817445  0.609769 0.354953
 0.232274  0.251097 0.386076
 0.232279  0.750954 0.386081
 0.767726  0.251097 0.386076
 0.767721  0.750954 0.386081
 0.280999  0.095935 0.407307
 0.280999  0.906114 0.407306
 0.719001  0.095935 0.407307
 0.719001  0.906114 0.407306
Direct configuration= 1
 -0.000000  0.380823 0.329202
 -0.000000  0.621649 0.329015
 0.098737  0.385868 0.331928
 0.098744  0.616390 0.331889
 0.901263  0.385868 0.331928
 0.901256  0.616390 0.331889
 0.048753  0.345563 0.351384
 0.048751  0.656564 0.351407
 0.951247  0.345563 0.351384
 0.951249  0.656564 0.351407
 0.143949  0.360354 0.362503
 0.143952  0.641824 0.362514
 0.856051  0.360354 0.362503
 0.856048  0.641824 0.362514
 0.048900  0.259502 0.386152
 0.048898  0.742600 0.386216
 0.951100  0.259502 0.386152
 0.951102  0.742600 0.386216
 0.146459  0.263710 0.389301
 0.146472  0.738424 0.389321
 0.853541  0.263710 0.389301
 0.853528  0.738424 0.389321
 0.000000  0.211702 0.397726
 0.000000  0.790428 0.397769
 0.097852  0.211411 0.397580
 0.097859  0.790703 0.397603
 0.902148  0.211411 0.397580
 0.902141  0.790703 0.397603
 0.194752  0.213477 0.395778
 0.194775  0.788608 0.395809
 0.805248  0.213477 0.395778
 0.805225  0.788608 0.395809
 0.000000  0.106763 0.410906
 0.000000  0.895384 0.410890
 0.098574  0.106440 0.409282
 0.098576  0.895677 0.409282
 0.901426  0.106440 0.409282
 0.901424  0.895677 0.409282
 0.196456  0.108442 0.406748
 0.196466  0.893631 0.406764
 0.803544  0.108442 0.406748
 0.803534  0.893631 0.406764
 0.049221  0.053726 0.412631
 0.049222  0.948402 0.412626
 0.950779  0.053726 0.412631
 0.950778  0.948402 0.412626
 0.147877  0.054110 0.411113
 0.147881  0.947974 0.411118
 0.852123  0.054110 0.411113
 0.852119  0.947974 0.411118
 0.244841  0.052497 0.408394
 0.244846  0.949568 0.408400
 0.755159  0.052497 0.408394
 0.755154  0.949568 0.408400
 0.000000  0.000000 0.000000
 0.000000  0.334060 0.000000
 0.000000  0.668120 0.000000
 0.400000  0.000000 0.000000
 0.400000  0.334060 0.000000
 0.400000  0.668120 0.000000
 0.450000  0.835150 0.000000
 0.450000  0.167030 0.000000
 0.450000  0.501090 0.000000
 0.050000  0.835150 0.000000
 0.050000  0.167030 0.000000
 0.050000  0.501090 0.000000
 0.500000  0.000000 0.000000
 0.500000  0.334060 0.000000
 0.500000  0.668120 0.000000
 0.550000  0.835150 0.000000
 0.550000  0.167030 0.000000
 0.550000  0.501090 0.000000
 0.600000  0.000000 0.000000
 0.600000  0.334060 0.000000
 0.600000  0.668120 0.000000
 0.650000  0.835150 0.000000
 0.650000  0.167030 0.000000
 0.650000  0.501090 0.000000
 0.700000  0.000000 0.000000
 0.700000  0.334060 0.000000
 0.700000  0.668120 0.000000
 0.750000  0.835150 0.000000
 0.750000  0.167030 0.000000
 0.750000  0.501090 0.000000
 0.800000  0.000000 0.000000
 0.800000  0.334060 0.000000
 0.800000  0.668120 0.000000
 0.850000  0.835150 0.000000
 0.850000  0.167030 0.000000
 0.850000  0.501090 0.000000
 0.900000  0.000000 0.000000
 0.900000  0.334060 0.000000
 0.900000  0.668120 0.000000
 0.950000  0.835150 0.000000
 0.950000  0.167030 0.000000
 0.950000  0.501090 0.000000
 0.100000  0.000000 0.000000
 0.100000  0.334060 0.000000
 0.100000  0.668120 0.000000
 0.150000  0.835150 0.000000
 0.150000  0.167030 0.000000
 0.150000  0.501090 0.000000
 0.200000  0.000000 0.000000
 0.200000  0.334060 0.000000
 0.200000  0.668120 0.000000
 0.250000  0.835150 0.000000
 0.250000  0.167030 0.000000
 0.250000  0.501090 0.000000
 0.300000  0.000000 0.000000
 0.300000  0.334060 0.000000
 0.300000  0.668120 0.000000
 0.350000  0.835150 0.000000
 0.350000  0.167030 0.000000
 0.350000  0.501090 0.000000
 0.000000  0.890827 0.083148
 0.000000  0.222707 0.083148
 0.000000  0.556767 0.083148
 0.400000  0.890827 0.083148
 0.400000  0.222707 0.083148
 0.400000  0.556767 0.083148
 0.450000  0.389737 0.083148
 0.450000  0.055677 0.083148
 0.450000  0.723797 0.083148
 0.050000  0.389737 0.083148
 0.050000  0.055677 0.083148
 0.050000  0.723797 0.083148
 0.500000  0.890827 0.083148
 0.500000  0.222707 0.083148
 0.500000  0.556767 0.083148
 0.550000  0.389737 0.083148
 0.550000  0.055677 0.083148
 0.550000  0.723797 0.083148
 0.600000  0.890827 0.083148
 0.600000  0.222707 0.083148
 0.600000  0.556767 0.083148
 0.650000  0.389737 0.083148
 0.650000  0.055677 0.083148
 0.650000  0.723797 0.083148
 0.700000  0.890827 0.083148
 0.700000  0.222707 0.083148
 0.700000  0.556767 0.083148
 0.750000  0.389737 0.083148
 0.750000  0.055677 0.083148
 0.750000  0.723797 0.083148
 0.800000  0.890827 0.083148
 0.800000  0.222707 0.083148
 0.800000  0.556767 0.083148
 0.850000  0.389737 0.083148
 0.850000  0.055677 0.083148
 0.850000  0.723797 0.083148
 0.900000  0.890827 0.083148
 0.900000  0.222707 0.083148
 0.900000  0.556767 0.083148
 0.950000  0.389737 0.083148
 0.950000  0.055677 0.083148
 0.950000  0.723797 0.083148
 0.100000  0.890827 0.083148
 0.100000  0.222707 0.083148
 0.100000  0.556767 0.083148
 0.150000  0.389737 0.083148
 0.150000  0.055677 0.083148
 0.150000  0.723797 0.083148
 0.200000  0.890827 0.083148
 0.200000  0.222707 0.083148
 0.200000  0.556767 0.083148
 0.250000  0.389737 0.083148
 0.250000  0.055677 0.083148
 0.250000  0.723797 0.083148
 0.300000  0.890827 0.083148
 0.300000  0.222707 0.083148
 0.300000  0.556767 0.083148
 0.350000  0.389737 0.083148
 0.350000  0.055677 0.083148
 0.350000  0.723797 0.083148
 0.000000  0.778628 0.172463
 -0.000000  0.111848 0.170319
 -0.000000  0.447767 0.172446
 0.400071  0.777972 0.170724
 0.400266  0.111008 0.170658
 0.400151  0.445682 0.170293
 0.448901  0.946307 0.170003
 0.448860  0.278048 0.171123
 0.448782  0.612132 0.170363
 0.050461  0.947107 0.170843
 0.050514  0.278717 0.172908
 0.050851  0.613143 0.172093
 0.500000  0.778167 0.171206
 0.500000  0.112029 0.170972
 0.500000  0.447135 0.170894
 0.551099  0.946307 0.170003
 0.551140  0.278048 0.171123
 0.551218  0.612132 0.170363
 0.599929  0.777972 0.170724
 0.599734  0.111008 0.170658
 0.599849  0.445682 0.170293
 0.650788  0.946640 0.170905
 0.650535  0.277099 0.170891
 0.650696  0.611575 0.170664
 0.699080  0.778321 0.170572
 0.698883  0.110345 0.170113
 0.699019  0.444268 0.169664
 0.750053  0.948351 0.170093
 0.749781  0.276471 0.169043
 0.749757  0.611910 0.169441
 0.800149  0.780285 0.170226
 0.800395  0.111366 0.169519
 0.800891  0.446023 0.169210
 0.849852  0.947882 0.170209
 0.849919  0.277512 0.171773
 0.849486  0.613074 0.170274
 0.899898  0.778750 0.172345
 0.900291  0.111155 0.170084
 0.900805  0.446583 0.172115
 0.949539  0.947107 0.170843
 0.949486  0.278717 0.172908
 0.949149  0.613143 0.172093
 0.100102  0.778750 0.172345
 0.099709  0.111155 0.170084
 0.099194  0.446583 0.172115
 0.150148  0.947882 0.170209
 0.150081  0.277512 0.171773
 0.150514  0.613074 0.170274
 0.199851  0.780285 0.170226
 0.199605  0.111366 0.169519
 0.199109  0.446023 0.169210
 0.249947  0.948351 0.170093
 0.250219  0.276471 0.169043
 0.250243  0.611910 0.169441
 0.300920  0.778321 0.170572
 0.301117  0.110345 0.170113
 0.300981  0.444268 0.169664
 0.349211  0.946640 0.170905
 0.349465  0.277099 0.170891
 0.349304  0.611575 0.170664
 -0.000000  0.000239 0.254990
 0.000000  0.336322 0.253699
 0.000000  0.666734 0.253684
 0.400011  0.000644 0.254512
 0.400045  0.335772 0.254480
 0.400128  0.667449 0.254880
 0.448996  0.836128 0.254076
 0.449025  0.167099 0.254997
 0.449030  0.501579 0.254868
 0.051037  0.837028 0.254559
 0.051138  0.165105 0.254523
 0.051185  0.501312 0.261125
 0.500000  0.000553 0.253434
 0.500000  0.336004 0.254131
 0.500000  0.666949 0.254377
 0.551004  0.836128 0.254076
 0.550974  0.167099 0.254997
 0.550970  0.501579 0.254868
 0.599989  0.000644 0.254512
 0.599955  0.335772 0.254480
 0.599872  0.667449 0.254880
 0.650490  0.836628 0.254680
 0.650500  0.166526 0.254995
 0.650595  0.501535 0.254914
 0.699831  0.000753 0.255645
 0.698913  0.335077 0.254294
 0.698874  0.668147 0.255011
 0.749521  0.838254 0.252640
 0.749379  0.165507 0.252422
 0.749212  0.501904 0.253266
 0.800639  0.000776 0.253384
 0.797185  0.335491 0.252192
 0.797308  0.668121 0.252691
 0.848950  0.836844 0.254484
 0.848944  0.166039 0.254802
 0.849184  0.501786 0.254432
 0.900115  0.000305 0.255014
 0.898808  0.335750 0.255269
 0.898715  0.667262 0.255211
 0.948963  0.837028 0.254559
 0.948862  0.165105 0.254523
 0.948815  0.501312 0.261125
 0.099885  0.000305 0.255014
 0.101192  0.335750 0.255269
 0.101285  0.667262 0.255211
 0.151050  0.836844 0.254484
 0.151056  0.166039 0.254802
 0.150816  0.501786 0.254432
 0.199361  0.000776 0.253384
 0.202815  0.335491 0.252192
 0.202692  0.668121 0.252691
 0.250479  0.838254 0.252640
 0.250621  0.165507 0.252422
 0.250788  0.501904 0.253266
 0.300169  0.000753 0.255645
 0.301087  0.335077 0.254294
 0.301126  0.668147 0.255011
 0.349510  0.836627 0.254680
 0.349500  0.166526 0.254995
 0.349405  0.501535 0.254914
 -0.000000  0.501358 0.388378
 0.101776  0.501145 0.391249
 0.898224  0.501145 0.391249
 0.182566  0.392733 0.353857
 0.182544  0.609288 0.353902
 0.817434  0.392733 0.353857
 0.817456  0.609288 0.353902
 0.231740  0.252097 0.386285
 0.231747  0.749942 0.386294
 0.768260  0.252097 0.386285
 0.768253  0.749942 0.386294
 0.281341  0.095396 0.407258
 0.281340  0.906641 0.407259
 0.718659  0.095396 0.407258
 0.718660  0.906641 0.407259
Direct configuration= 2
 -0.000000  0.379718 0.329141
 -0.000000  0.622857 0.328908
 0.098904  0.384276 0.331922
 0.098931  0.618045 0.331827
 0.901096  0.384276 0.331922
 0.901069  0.618045 0.331827
 0.048754  0.345205 0.351551
 0.048760  0.656912 0.351553
 0.951246  0.345205 0.351551
 0.951240  0.656912 0.351553
 0.144073  0.360272 0.362455
 0.144076  0.641864 0.362480
 0.855927  0.360272 0.362455
 0.855924  0.641864 0.362480
 0.048733  0.259428 0.386056
 0.048733  0.742633 0.386125
 0.951267  0.259428 0.386056
 0.951267  0.742633 0.386125
 0.146223  0.263835 0.389517
 0.146233  0.738278 0.389546
 0.853777  0.263835 0.389517
 0.853767  0.738278 0.389546
 0.000000  0.211791 0.397551
 0.000000  0.790303 0.397601
 0.097616  0.211793 0.397790
 0.097620  0.790307 0.397820
 0.902384  0.211793 0.397790
 0.902380  0.790307 0.397820
 0.194351  0.213677 0.395970
 0.194369  0.788399 0.396004
 0.805649  0.213677 0.395970
 0.805631  0.788399 0.396004
 0.000000  0.107313 0.411134
 0.000000  0.894840 0.411122
 0.098189  0.106751 0.409695
 0.098189  0.895372 0.409697
 0.901811  0.106751 0.409695
 0.901810  0.895372 0.409697
 0.196206  0.108387 0.406812
 0.196215  0.893691 0.406830
 0.803794  0.108387 0.406812
 0.803785  0.893691 0.406830
 0.048960  0.054015 0.412987
 0.048961  0.948120 0.412983
 0.951040  0.054015 0.412987
 0.951039  0.948120 0.412983
 0.147356  0.054215 0.411225
 0.147358  0.947872 0.411231
 0.852644  0.054215 0.411225
 0.852642  0.947872 0.411231
 0.244480  0.052145 0.408205
 0.244484  0.949921 0.408213
 0.755520  0.052145 0.408205
 0.755515  0.949921 0.408213
 0.000000  0.000000 0.000000
 0.000000  0.334060 0.000000
 0.000000  0.668120 0.000000
 0.400000  0.000000 0.000000
 0.400000  0.334060 0.000000
 0.400000  0.668120 0.000000
 0.450000  0.835150 0.000000
 0.450000  0.167030 0.000000
 0.450000  0.501090 0.000000
 0.050000  0.835150 0.000000
 0.050000  0.167030 0.000000
 0.050000  0.501090 0.000000
 0.500000  0.000000 0.000000
 0.500000  0.334060 0.000000
 0.500000  0.668120 0.000000
 0.550000  0.835150 0.000000
 0.550000  0.167030 0.000000
 0.550000  0.501090 0.000000
 0.600000  0.000000 0.000000
 0.600000  0.334060 0.000000
 0.600000  0.668120 0.000000
 0.650000  0.835150 0.000000
 0.650000  0.167030 0.000000
 0.650000  0.501090 0.000000
 0.700000  0.000000 0.000000
 0.700000  0.334060 0.000000
 0.700000  0.668120 0.000000
 0.750000  0.835150 0.000000
 0.750000  0.167030 0.000000
 0.750000  0.501090 0.000000
 0.800000  0.000000 0.000000
 0.800000  0.334060 0.000000
 0.800000  0.668120 0.000000
 0.850000  0.835150 0.000000
 0.850000  0.167030 0.000000
 0.850000  0.501090 0.000000
 0.900000  0.000000 0.000000
 0.900000  0.334060 0.000000
 0.900000  0.668120 0.000000
 0.950000  0.835150 0.000000
 0.950000  0.167030 0.000000
 0.950000  0.501090 0.000000
 0.100000  0.000000 0.000000
 0.100000  0.334060 0.000000
 0.100000  0.668120 0.000000
 0.150000  0.835150 0.000000
 0.150000  0.167030 0.000000
 0.150000  0.501090 0.000000
 0.200000  0.000000 0.000000
 0.200000  0.334060 0.000000
 0.200000  0.668120 0.000000
 0.250000  0.835150 0.000000
 0.250000  0.167030 0.000000
 0.250000  0.501090 0.000000
 0.300000  0.000000 0.000000
 0.300000  0.334060 0.000000
 0.300000  0.668120 0.000000
 0.350000  0.835150 0.000000
 0.350000  0.167030 0.000000
 0.350000  0.501090 0.000000
 0.000000  0.890827 0.083148
 0.000000  0.222707 0.083148
 0.000000  0.556767 0.083148
 0.400000  0.890827 0.083148
 0.400000  0.222707 0.083148
 0.400000  0.556767 0.083148
 0.450000  0.389737 0.083148
 0.450000  0.055677 0.083148
 0.450000  0.723797 0.083148
 0.050000  0.389737 0.083148
 0.050000  0.055677 0.083148
 0.050000  0.723797 0.083148
 0.500000  0.890827 0.083148
 0.500000  0.222707 0.083148
 0.500000  0.556767 0.083148
 0.550000  0.389737 0.083148
 0.550000  0.055677 0.083148
 0.550000  0.723797 0.083148
 0.600000  0.890827 0.083148
 0.600000  0.222707 0.083148
 0.600000  0.556767 0.083148
 0.650000  0.389737 0.083148
 0.650000  0.055677 0.083148
 0.650000  0.723797 0.083148
 0.700000  0.890827 0.083148
 0.700000  0.222707 0.083148
 0.700000  0.556767 0.083148
 0.750000  0.389737 0.083148
 0.750000  0.055677 0.083148
 0.750000  0.723797 0.083148
 0.800000  0.890827 0.083148
 0.800000  0.222707 0.083148
 0.800000  0.556767 0.083148
 0.850000  0.389737 0.083148
 0.850000  0.055677 0.083148
 0.850000  0.723797 0.083148
 0.900000  0.890827 0.083148
 0.900000  0.222707 0.083148
 0.900000  0.556767 0.083148
 0.950000  0.389737 0.083148
 0.950000  0.055677 0.083148
 0.950000  0.723797 0.083148
 0.100000  0.890827 0.083148
 0.100000  0.222707 0.083148
 0.100000  0.556767 0.083148
 0.150000  0.389737 0.083148
 0.150000  0.055677 0.083148
 0.150000  0.723797 0.083148
 0.200000  0.890827 0.083148
 0.200000  0.222707 0.083148
 0.200000  0.556767 0.083148
 0.250000  0.389737 0.083148
 0.250000  0.055677 0.083148
 0.250000  0.723797 0.083148
 0.300000  0.890827 0.083148
 0.300000  0.222707 0.083148
 0.300000  0.556767 0.083148
 0.350000  0.389737 0.083148
 0.350000  0.055677 0.083148
 0.350000  0.723797 0.083148
 0.000000  0.779291 0.172412
 -0.000000  0.111982 0.170743
 0.000000  0.448248 0.172573
 0.399899  0.777988 0.171166
 0.400186  0.110976 0.171228
 0.400072  0.445532 0.170760
 0.448960  0.946054 0.170420
 0.448971  0.278248 0.171516
 0.448856  0.612170 0.170881
 0.050331  0.947034 0.171291
 0.050488  0.278727 0.172831
 0.050857  0.613144 0.172013
 0.500000  0.778179 0.171575
 0.500000  0.112130 0.171437
 0.500000  0.447191 0.171306
 0.551040  0.946054 0.170420
 0.551029  0.278248 0.171516
 0.551144  0.612170 0.170881
 0.600101  0.777988 0.171166
 0.599814  0.110976 0.171228
 0.599928  0.445532 0.170760
 0.650731  0.946423 0.171345
 0.650451  0.277016 0.171261
 0.650672  0.611437 0.171148
 0.699218  0.778382 0.170876
 0.698964  0.110320 0.170641
 0.699135  0.443787 0.169947
 0.750046  0.948479 0.170305
 0.749777  0.276492 0.169266
 0.749703  0.611842 0.169688
 0.799913  0.780489 0.170510
 0.800374  0.111431 0.169905
 0.800911  0.446020 0.169645
 0.849903  0.947859 0.170609
 0.849892  0.277674 0.171941
 0.849357  0.613177 0.170538
 0.899791  0.779137 0.172605
 0.900260  0.111294 0.170520
 0.900747  0.446923 0.172415
 0.949669  0.947034 0.171291
 0.949512  0.278727 0.172831
 0.949143  0.613144 0.172013
 0.100209  0.779137 0.172605
 0.099740  0.111293 0.170520
 0.099253  0.446923 0.172415
 0.150097  0.947859 0.170609
 0.150108  0.277674 0.171941
 0.150643  0.613177 0.170538
 0.200087  0.780489 0.170510
 0.199627  0.111431 0.169905
 0.199089  0.446020 0.169645
 0.249954  0.948479 0.170305
 0.250223  0.276492 0.169265
 0.250297  0.611842 0.169688
 0.300782  0.778382 0.170876
 0.301036  0.110320 0.170641
 0.300865  0.443787 0.169947
 0.349269  0.946423 0.171345
 0.349549  0.277016 0.171261
 0.349328  0.611437 0.171148
 -0.000000  0.000182 0.255242
 0.000000  0.335651 0.252984
 -0.000000  0.667152 0.252901
 0.399995  0.000573 0.254916
 0.400055  0.335593 0.254950
 0.400123  0.667538 0.255248
 0.449118  0.835919 0.254457
 0.449193  0.167333 0.255320
 0.449151  0.501536 0.255180
 0.050902  0.836714 0.255045
 0.051011  0.165263 0.254862
 0.050972  0.501242 0.261391
 0.500000  0.000505 0.253728
 0.500000  0.335878 0.254599
 0.500000  0.667070 0.254800
 0.550882  0.835919 0.254457
 0.550807  0.167333 0.255321
 0.550849  0.501536 0.255180
 0.600005  0.000573 0.254916
 0.599945  0.335593 0.254950
 0.599876  0.667538 0.255248
 0.650454  0.836516 0.255190
 0.650418  0.166572 0.255428
 0.650551  0.501453 0.255240
 0.699883  0.000736 0.255665
 0.698813  0.334797 0.254568
 0.698796  0.668444 0.255192
 0.749508  0.838358 0.252954
 0.749349  0.165602 0.252633
 0.749132  0.501903 0.253343
 0.800498  0.000824 0.253650
 0.796891  0.335211 0.252406
 0.797028  0.668323 0.252956
 0.848945  0.836529 0.254952
 0.848982  0.166319 0.255112
 0.849356  0.501804 0.254839
 0.900036  0.000233 0.255124
 0.898523  0.335154 0.254551
 0.898408  0.667592 0.254455
 0.949098  0.836714 0.255045
 0.948989  0.165263 0.254862
 0.949028  0.501242 0.261391
 0.099964  0.000233 0.255124
 0.101477  0.335154 0.254551
 0.101592  0.667592 0.254455
 0.151055  0.836529 0.254951
 0.151018  0.166319 0.255112
 0.150644  0.501804 0.254839
 0.199502  0.000824 0.253650
 0.203109  0.335211 0.252406
 0.202972  0.668323 0.252956
 0.250492  0.838358 0.252954
 0.250651  0.165602 0.252633
 0.250868  0.501903 0.253343
 0.300118  0.000736 0.255665
 0.301187  0.334797 0.254568
 0.301204  0.668444 0.255192
 0.349546  0.836516 0.255190
 0.349582  0.166572 0.255428
 0.349449  0.501453 0.255240
 0.000000  0.501452 0.387555
 0.101375  0.501126 0.390322
 0.898625  0.501126 0.390322
 0.182461  0.393309 0.353017
 0.182444  0.608718 0.353066
 0.817538  0.393309 0.353017
 0.817556  0.608718 0.353066
 0.231204  0.252492 0.386551
 0.231211  0.749547 0.386564
 0.768796  0.252492 0.386551
 0.768789  0.749547 0.386564
 0.281494  0.094797 0.407197
 0.281492  0.907239 0.407201
 0.718506  0.094797 0.407197
 0.718508  0.907239 0.407201
Direct configuration= 3
 -0.000000  0.378902 0.328834
 -0.000000  0.623796 0.328543
 0.098893  0.383103 0.331639
 0.098945  0.619299 0.331494
 0.901107  0.383103 0.331639
 0.901055  0.619299 0.331494
 0.048716  0.344881 0.351642
 0.048730  0.657242 0.351618
 0.951284  0.344881 0.351642
 0.951270  0.657242 0.351618
 0.144189  0.360073 0.362402
 0.144188  0.642016 0.362445
 0.855811  0.360073 0.362402
 0.855812  0.642016 0.362445
 0.048651  0.259024 0.386207
 0.048655  0.742999 0.386287
 0.951348  0.259024 0.386207
 0.951345  0.742999 0.386287
 0.146058  0.263877 0.389878
 0.146063  0.738207 0.389917
 0.853942  0.263877 0.389878
 0.853937  0.738207 0.389917
 0.000000  0.211422 0.397485
 0.000000  0.790648 0.397546
 0.097363  0.211865 0.398067
 0.097364  0.790228 0.398105
 0.902637  0.211865 0.398067
 0.902636  0.790228 0.398105
 0.193963  0.213510 0.396269
 0.193975  0.788567 0.396309
 0.806037  0.213510 0.396269
 0.806025  0.788567 0.396309
 0.000000  0.107218 0.411415
 0.000000  0.894903 0.411403
 0.097814  0.106894 0.410147
 0.097812  0.895217 0.410150
 0.902186  0.106894 0.410147
 0.902188  0.895217 0.410150
 0.195697  0.108216 0.406866
 0.195701  0.893852 0.406887
 0.804303  0.108216 0.406866
 0.804299  0.893852 0.406887
 0.048737  0.053804 0.413462
 0.048736  0.948337 0.413459
 0.951263  0.053804 0.413462
 0.951264  0.948337 0.413459
 0.146864  0.054151 0.411402
 0.146866  0.947945 0.411410
 0.853136  0.054151 0.411402
 0.853134  0.947945 0.411410
 0.244111  0.052020 0.407989
 0.244115  0.950050 0.407998
 0.755889  0.052020 0.407989
 0.755885  0.950050 0.407998
 0.000000  0.000000 0.000000
 0.000000  0.334060 0.000000
 0.000000  0.668120 0.000000
 0.400000  0.000000 0.000000
 0.400000  0.334060 0.000000
 0.400000  0.668120 0.000000
 0.450000  0.835150 0.000000
 0.450000  0.167030 0.000000
 0.450000  0.501090 0.000000
 0.050000  0.835150 0.000000
 0.050000  0.167030 0.000000
 0.050000  0.501090 0.000000
 0.500000  0.000000 0.000000
 0.500000  0.334060 0.000000
 0.500000  0.668120 0.000000
 0.550000  0.835150 0.000000
 0.550000  0.167030 0.000000
 0.550000  0.501090 0.000000
 0.600000  0.000000 0.000000
 0.600000  0.334060 0.000000
 0.600000  0.668120 0.000000
 0.650000  0.835150 0.000000
 0.650000  0.167030 0.000000
 0.650000  0.501090 0.000000
 0.700000  0.000000 0.000000
 0.700000  0.334060 0.000000
 0.700000  0.668120 0.000000
 0.750000  0.835150 0.000000
 0.750000  0.167030 0.000000
 0.750000  0.501090 0.000000
 0.800000  0.000000 0.000000
 0.800000  0.334060 0.000000
 0.800000  0.668120 0.000000
 0.850000  0.835150 0.000000
 0.850000  0.167030 0.000000
 0.850000  0.501090 0.000000
 0.900000  0.000000 0.000000
 0.900000  0.334060 0.000000
 0.900000  0.668120 0.000000
 0.950000  0.835150 0.000000
 0.950000  0.167030 0.000000
 0.950000  0.501090 0.000000
 0.100000  0.000000 0.000000
 0.100000  0.334060 0.000000