 vasp.6.4.3 19Mar24 (build Sep 16 2025 16:33:43) complex                         
 executed on             LinuxGNU date 2025.09.17  13:16:49
 running  256 mpi-ranks, with    1 threads/rank, on    2 nodes
 distrk:  each k-point on   32 cores,    8 groups
 distr:  one band on NCORE=   8 cores,    4 groups


--------------------------------------------------------------------------------------------------------


 INCAR:
   SYSTEM = CrI3
   ISTART = 1
   ICHARG = 1
   PREC = Accurate
   ENCUT = 350
   ADDGRID = .TRUE.
   ALGO = Fast
   EDIFF = 1E-06
   NELM = 100
   NELMIN = 2
   NELMDL = -5
   EDIFFG = -0.01
   NSW = 1000
   IBRION = 2
   ISIF = 4
   POTIM = 0.1
   ISMEAR = 0
   SIGMA = 0.01
   IVDW = 11
   ISPIN = 2
   MAGMOM = 2*4 6*0
   LORBIT = 11
   LDAU = .TRUE.
   LDAUTYPE = 2
   LDAUL = 2 -1
   LDAUU = 3.0 0.0
   LDAUJ = 0.0 0.0
   LDAUPRINT = 2
   LASPH = .TRUE.
   LMAXMIX = 4
   NPAR = 4
   KPAR = 8

 POTCAR:   PAW_PBE Cr_pv 07Sep2000                
 POTCAR:   PAW_PBE I 08Apr2002                    
 POTCAR:   PAW_PBE Cr_pv 07Sep2000                
   VRHFIN =Cr : p6d5s1                                                                              
   LEXCH  = PE                                                                                      
   EATOM  =  1647.5667 eV,  121.0927 Ry                                                             
                                                                                                    
   TITEL  = PAW_PBE Cr_pv 07Sep2000                                                                 
   LULTRA =        F    use ultrasoft PP ?                                                          
   IUNSCR =        1    unscreen: 0-lin 1-nonlin 2-no                                               
   RPACOR =    2.080    partial core radius                                                         
   POMASS =   51.996; ZVAL   =   12.000    mass and valenz                                          
   RCORE  =    2.300    outmost cutoff radius                                                       
   RWIGS  =    2.500; RWIGS  =    1.323    wigner-seitz radius (au A)                               
   ENMAX  =  265.683; ENMIN  =  199.262 eV                                                          
   RCLOC  =    1.721    cutoff for local pot                                                        
   LCOR   =        T    correct aug charges                                                         
   LPAW   =        T    paw PP                                                                      
   EAUG   =  519.424                                                                                
   DEXC   =    -.003                                                                                
   RMAX   =    2.829    core radius for proj-oper                                                   
   RAUG   =    1.300    factor for augmentation sphere                                              
   RDEP   =    2.447    radius for radial grids                                                     
   QCUT   =   -4.419; QGAM   =    8.838    optimization parameters                                  
                                                                                                    
   Description                                                                                      
     l     E      TYP  RCUT    TYP  RCUT                                                            
     1   .000     23  2.000                                                                         
     1   .100     23  2.000                                                                         
     2   .000     23  2.300                                                                         
     2   .000     23  2.300                                                                         
     0   .000     23  2.300                                                                         
     0   .000     23  2.300                                                                         
     3   .000      7   .000                                                                         
  local pseudopotential read in
  partial core-charges read in
  atomic valenz-charges read in
  non local Contribution for L=           1  read in
    real space projection operators read in
  non local Contribution for L=           1  read in
    real space projection operators read in
  non local Contribution for L=           2  read in
    real space projection operators read in
  non local Contribution for L=           2  read in
    real space projection operators read in
  non local Contribution for L=           0  read in
    real space projection operators read in
  non local Contribution for L=           0  read in
    real space projection operators read in
    PAW grid and wavefunctions read in

   number of l-projection  operators is LMAX  =           6
   number of lm-projection operators is LMMAX =          18

 POTCAR:   PAW_PBE I 08Apr2002                    
   VRHFIN =I : s2p5                                                                                 
   LEXCH  = PE                                                                                      
   EATOM  =   315.8678 eV,   23.2156 Ry                                                             
                                                                                                    
   TITEL  = PAW_PBE I 08Apr2002                                                                     
   LULTRA =        F    use ultrasoft PP ?                                                          
   IUNSCR =        1    unscreen: 0-lin 1-nonlin 2-no                                               
   RPACOR =    2.200    partial core radius                                                         
   POMASS =  126.904; ZVAL   =    7.000    mass and valenz                                          
   RCORE  =    2.300    outmost cutoff radius                                                       
   RWIGS  =    2.810; RWIGS  =    1.487    wigner-seitz radius (au A)                               
   ENMAX  =  175.647; ENMIN  =  131.735 eV                                                          
   ICORE  =        3    local potential                                                             
   LCOR   =        T    correct aug charges                                                         
   LPAW   =        T    paw PP                                                                      
   EAUG   =  370.139                                                                                
   DEXC   =    -.080                                                                                
   RMAX   =    3.479    core radius for proj-oper                                                   
   RAUG   =    1.300    factor for augmentation sphere                                              
   RDEP   =    2.392    radius for radial grids                                                     
   QCUT   =   -3.593; QGAM   =    7.186    optimization parameters                                  
                                                                                                    
   Description                                                                                      
     l     E      TYP  RCUT    TYP  RCUT                                                            
     0   .000     23  2.300                                                                         
     0   .000     23  2.300                                                                         
     1   .000     23  2.300                                                                         
     1   .000     23  2.300                                                                         
     2   .000     23  2.300                                                                         
     3  -.100     23  2.300                                                                         
  local pseudopotential read in
  partial core-charges read in
  atomic valenz-charges read in
  non local Contribution for L=           0  read in
    real space projection operators read in
  non local Contribution for L=           0  read in
    real space projection operators read in
  non local Contribution for L=           1  read in
    real space projection operators read in
  non local Contribution for L=           1  read in
    real space projection operators read in
  non local Contribution for L=           2  read in
    real space projection operators read in
    PAW grid and wavefunctions read in

   number of l-projection  operators is LMAX  =           5
   number of lm-projection operators is LMMAX =          13

 PAW_PBE Cr_pv 07Sep2000                :
 energy of atom  1       EATOM=-1647.5667
 kinetic energy error for atom=    0.0523 (will be added to EATOM!!)
 PAW_PBE I 08Apr2002                    :
 energy of atom  2       EATOM= -315.8678
 kinetic energy error for atom=    0.0023 (will be added to EATOM!!)


 POSCAR: generated by phonopy
  positions in cartesian coordinates
  No initial velocities read in
 IVDW         = 11
 VDW_S6       =    1.0000
 VDW_S8       =    0.7220
 VDW_SR       =    1.2170
 VDW_RADIUS   =   50.2022 A
 VDW_CNRADIUS =   21.1671 A


 exchange-correlation table for PE
   RHO(1)=    0.500       N(1)  =     2000
   RHO(2)=  100.500       N(2)  =     4000

 VTST: version 4.2, (11/09/24)

 CHAIN: initializing optimizer
 
 OPT: Using VASP Conjugate-Gradient optimizer
 CHAIN: Read ICHAIN            0

 POSCAR: generated by phonopy
  positions in cartesian coordinates
  No initial velocities read in
 before allocate FREE
 after allocate FREE
 FREE:    1.0000000000000000        1.0000000000000000        1.0000000000000000        1.0000000000000000        1.0000000000000000        1.0000000000000000        1.0000000000000000        1.0000000000000000        1.0000000000000000        1.0000000000000000        1.0000000000000000        1.0000000000000000        1.0000000000000000        1.0000000000000000        1.0000000000000000        1.0000000000000000        1.0000000000000000        1.0000000000000000        1.0000000000000000        1.0000000000000000        1.0000000000000000        1.0000000000000000        1.0000000000000000        1.0000000000000000     



--------------------------------------------------------------------------------------------------------


 ion  position               nearest neighbor table
   1  0.000  0.000  0.500-   7 2.77   8 2.77   6 2.77   4 2.77   5 2.77   3 2.77
   2  0.667  0.333  0.500-   5 2.77   4 2.77   3 2.77   8 2.77   6 2.77   7 2.77
   3  0.981  0.315  0.431-   2 2.77   1 2.77
   4  0.685  0.667  0.431-   2 2.77   1 2.77
   5  0.333  0.019  0.431-   2 2.77   1 2.77
   6  0.685  0.019  0.569-   1 2.77   2 2.77
   7  0.981  0.667  0.569-   1 2.77   2 2.77
   8  0.333  0.315  0.569-   1 2.77   2 2.77

  LATTYP: Found a hexagonal cell.
 ALAT       =     6.9794106535
 C/A-ratio  =     3.2954071829
  
  Lattice vectors:
  
 A1 = (   6.9794106535,   0.0000000000,   0.0000000000)
 A2 = (  -3.4897053267,   6.0443469293,   0.0000000000)
 A3 = (   0.0000000000,   0.0000000000,  23.0000000000)


Analysis of symmetry for initial positions (statically):
=====================================================================
 Subroutine PRICEL returns:
 Original cell was already a primitive cell.
 

 Routine SETGRP: Setting up the symmetry group for a 
 hexagonal supercell.


 Subroutine GETGRP returns: Found  3 space group operations
 (whereof  3 operations were pure point group operations)
 out of a pool of 24 trial point group operations.


The static configuration has the point symmetry C_3 .


Analysis of symmetry for dynamics (positions and initial velocities):
=====================================================================
 Subroutine PRICEL returns:
 Original cell was already a primitive cell.
 

 Routine SETGRP: Setting up the symmetry group for a 
 hexagonal supercell.


 Subroutine GETGRP returns: Found  3 space group operations
 (whereof  3 operations were pure point group operations)
 out of a pool of 24 trial point group operations.


The dynamic configuration has the point symmetry C_3 .


Analysis of structural, dynamic, and magnetic symmetry:
=====================================================================
 Subroutine PRICEL returns:
 Original cell was already a primitive cell.
 

 Routine SETGRP: Setting up the symmetry group for a 
 hexagonal supercell.


 Subroutine GETGRP returns: Found  3 space group operations
 (whereof  3 operations were pure point group operations)
 out of a pool of 24 trial point group operations.


The overall configuration has the point symmetry C_3 .


 Subroutine INISYM returns: Found  3 space group operations
 (whereof  3 operations are pure point group operations),
 and found     1 'primitive' translations


----------------------------------------------------------------------------------------

                                     Primitive cell                                     

  volume of cell :     970.2775

  direct lattice vectors                    reciprocal lattice vectors
     6.979410653  0.000000000  0.000000000     0.143278573  0.082721923 -0.000000000
    -3.489705327  6.044346929  0.000000000     0.000000000  0.165443846  0.000000000
     0.000000000  0.000000000 23.000000000     0.000000000 -0.000000000  0.043478261

  length of vectors
     6.979410653  6.979410653 23.000000000     0.165443846  0.165443846  0.043478261

  position of ions in fractional coordinates (direct lattice)
     0.000000000  0.000000000  0.500001439
     0.666666667  0.333333364  0.499992076
     0.981366938  0.314689818  0.430508153
     0.685310213  0.666677182  0.430508153
     0.333322849  0.018633093  0.430508153
     0.685336422  0.018682864  0.569491847
     0.981317167  0.666653620  0.569491847
     0.333346411  0.314663610  0.569491847

  ion indices of the primitive-cell ions
   primitive index   ion index
                 1           1
                 2           2
                 3           3
                 4           4
                 5           5
                 6           6
                 7           7
                 8           8

----------------------------------------------------------------------------------------



 KPOINTS: 1 Automatic mesh                        

Automatic generation of k-mesh.
 Grid dimensions read from file:
 generate k-points for:   12   12    1

 Generating k-lattice:

  Cartesian coordinates                     Fractional coordinates (reciprocal lattice)
     0.011939881  0.006893494 -0.000000000     0.083333333  0.000000000  0.000000000
     0.000000000  0.013786987  0.000000000     0.000000000  0.083333333  0.000000000
     0.000000000 -0.000000000  0.043478261     0.000000000  0.000000000  1.000000000

  Length of vectors
     0.013786987  0.013786987  0.043478261

  Shift w.r.t. Gamma in fractional coordinates (k-lattice)
     0.000000000  0.000000000  0.000000000

 
 Subroutine IBZKPT returns following result:
 ===========================================
 
 Found     26 irreducible k-points:
 
 Following reciprocal coordinates:
            Coordinates               Weight
  0.000000  0.000000  0.000000      1.000000
  0.083333  0.000000  0.000000      6.000000
  0.166667  0.000000  0.000000      6.000000
  0.250000  0.000000  0.000000      6.000000
  0.333333  0.000000  0.000000      6.000000
  0.416667  0.000000  0.000000      6.000000
  0.500000  0.000000  0.000000      3.000000
  0.083333  0.083333  0.000000      6.000000
  0.166667  0.083333  0.000000      6.000000
 -0.166667  0.250000  0.000000      6.000000
  0.250000  0.083333  0.000000      6.000000
 -0.250000  0.333333  0.000000      6.000000
  0.333333  0.083333  0.000000      6.000000
 -0.333333  0.416667  0.000000      6.000000
  0.416667  0.083333  0.000000      6.000000
 -0.416667  0.500000  0.000000      6.000000
  0.166667  0.166667  0.000000      6.000000
  0.250000  0.166667  0.000000      6.000000
 -0.250000  0.416667  0.000000      6.000000
  0.333333  0.166667  0.000000      6.000000
 -0.333333  0.500000  0.000000      6.000000
  0.416667  0.166667  0.000000      6.000000
  0.250000  0.250000  0.000000      6.000000
  0.333333  0.250000  0.000000      6.000000
 -0.333333 -0.416667  0.000000      6.000000
  0.333333  0.333333  0.000000      2.000000
 
 Following cartesian coordinates:
            Coordinates               Weight
  0.000000  0.000000  0.000000      1.000000
  0.011940  0.006893  0.000000      6.000000
  0.023880  0.013787  0.000000      6.000000
  0.035820  0.020680  0.000000      6.000000
  0.047760  0.027574  0.000000      6.000000
  0.059699  0.034467  0.000000      6.000000
  0.071639  0.041361  0.000000      3.000000
  0.011940  0.020680  0.000000      6.000000
  0.023880  0.027574  0.000000      6.000000
 -0.023880  0.027574  0.000000      6.000000
  0.035820  0.034467  0.000000      6.000000
 -0.035820  0.034467  0.000000      6.000000
  0.047760  0.041361  0.000000      6.000000
 -0.047760  0.041361  0.000000      6.000000
  0.059699  0.048254  0.000000      6.000000
 -0.059699  0.048254  0.000000      6.000000
  0.023880  0.041361  0.000000      6.000000
  0.035820  0.048254  0.000000      6.000000
 -0.035820  0.048254  0.000000      6.000000
  0.047760  0.055148  0.000000      6.000000
 -0.047760  0.055148  0.000000      6.000000
  0.059699  0.062041  0.000000      6.000000
  0.035820  0.062041  0.000000      6.000000
  0.047760  0.068935  0.000000      6.000000
 -0.047760 -0.096509  0.000000      6.000000
  0.047760  0.082722  0.000000      2.000000
 


--------------------------------------------------------------------------------------------------------




 Dimension of arrays:
   k-points           NKPTS =     26   k-points in BZ     NKDIM =     26   number of bands    NBANDS=     44
   number of dos      NEDOS =    301   number of ions     NIONS =      8
   non local maximal  LDIM  =      6   non local SUM 2l+1 LMDIM =     18
   total plane-waves  NPLWV = 322560
   max r-space proj   IRMAX =      1   max aug-charges    IRDMAX= 154024
   dimension x,y,z NGX =    48 NGY =   48 NGZ =  140
   dimension x,y,z NGXF=    96 NGYF=   96 NGZF=  280
   support grid    NGXF=   192 NGYF=  192 NGZF=  560
   ions per type =               2   6
   NGX,Y,Z   is equivalent  to a cutoff of  11.43, 11.43, 10.12 a.u.
   NGXF,Y,Z  is equivalent  to a cutoff of  22.87, 22.87, 20.24 a.u.

 SYSTEM =  CrI3                                    
 POSCAR =  generated by phonopy                    

 Startparameter for this run:
   NWRITE =      2    write-flag & timer
   PREC   = accura    normal or accurate (medium, high low for compatibility)
   ISTART =      0    job   : 0-new  1-cont  2-samecut
   ICHARG =      1    charge: 1-file 2-atom 10-const
   ISPIN  =      2    spin polarized calculation?
   LNONCOLLINEAR =      F non collinear calculations
   LSORBIT =      F    spin-orbit coupling
   INIWAV =      1    electr: 0-lowe 1-rand  2-diag
   LASPH  =      T    aspherical Exc in radial PAW
 Electronic Relaxation 1
   ENCUT  =  350.0 eV  25.72 Ry    5.07 a.u.  10.65 10.65 35.08*2*pi/ulx,y,z
   ENINI  =  350.0     initial cutoff
   ENAUG  =  519.4 eV  augmentation charge cutoff
   NELM   =    100;   NELMIN=  2; NELMDL= -5     # of ELM steps 
   EDIFF  = 0.1E-05   stopping-criterion for ELM
   LREAL  =      F    real-space projection
   NLSPLINE    = F    spline interpolate recip. space projectors
   LCOMPAT=      F    compatible to vasp.4.4
   GGA_COMPAT  = T    GGA compatible to vasp.4.4-vasp.4.6
   LMAXPAW     = -100 max onsite density
   LMAXMIX     =    4 max onsite mixed and CHGCAR
   VOSKOWN=      0    Vosko Wilk Nusair interpolation
   ROPT   =    0.00000   0.00000
 Ionic relaxation
   EDIFFG = -.1E-01   stopping-criterion for IOM
   NSW    =   1000    number of steps for IOM
   NBLOCK =      1;   KBLOCK =   1000    inner block; outer block 
   IBRION =      2    ionic relax: 0-MD 1-quasi-New 2-CG
   NFREE  =      1    steps in history (QN), initial steepest desc. (CG)
   ISIF   =      4    stress and relaxation
   IWAVPR =     11    prediction:  0-non 1-charg 2-wave 3-comb
   ISYM   =      2    0-nonsym 1-usesym 2-fastsym
   LCORR  =      T    Harris-Foulkes like correction to forces

   POTIM  = 0.1000    time-step for ionic-motion
   TEIN   =    0.0    initial temperature
   TEBEG  =    0.0;   TEEND  =   0.0 temperature during run
   SMASS  =  -3.00    Nose mass-parameter (am)
   estimated Nose-frequenzy (Omega)   =  0.10E-29 period in steps = 0.63E+47 mass=  -0.111E-26a.u.
   SCALEE = 1.0000    scale energy and forces
   NPACO  =    256;   APACO  = 10.0  distance and # of slots for P.C.
   PSTRESS=    0.0 pullay stress

  Mass of Ions in am
   POMASS =  52.00126.90
  Ionic Valenz
   ZVAL   =  12.00  7.00
  Atomic Wigner-Seitz radii
   RWIGS  =  -1.00 -1.00
  virtual crystal weights 
   VCA    =   1.00  1.00
   NELECT =      66.0000    total number of electrons
   NUPDOWN=      -1.0000    fix difference up-down

 DOS related values:
   EMIN   =  10.00;   EMAX   =-10.00  energy-range for DOS
   EFERMI =   0.00;   METHOD = LEGACY      
   ISMEAR =     0;   SIGMA  =   0.01  broadening in eV -4-tet -1-fermi 0-gaus

 Electronic relaxation 2 (details)
   IALGO  =     68    algorithm
   LDIAG  =      T    sub-space diagonalisation (order eigenvalues)
   LSUBROT=      F    optimize rotation matrix (better conditioning)
   TURBO    =      0    0=normal 1=particle mesh
   IRESTART =      0    0=no restart 2=restart with 2 vectors
   NREBOOT  =      0    no. of reboots
   NMIN     =      0    reboot dimension
   EREF     =   0.00    reference energy to select bands
   IMIX   =      4    mixing-type and parameters
     AMIX     =   0.40;   BMIX     =  1.00
     AMIX_MAG =   1.60;   BMIX_MAG =  1.00
     AMIN     =   0.10
     WC   =   100.;   INIMIX=   1;  MIXPRE=   1;  MAXMIX= -45

 Intra band minimization:
   WEIMIN = 0.0010     energy-eigenvalue tresh-hold
   EBREAK =  0.57E-08  absolut break condition
   DEPER  =   0.30     relativ break condition  

   TIME   =   0.40     timestep for ELM

  volume/ion in A,a.u.               =     121.28       818.47
  Fermi-wavevector in a.u.,A,eV,Ry     =   0.668278  1.262863  6.076309  0.446596
  Thomas-Fermi vector in A             =   1.743141

 Write flags
   LWAVE        =      T    write WAVECAR
   LDOWNSAMPLE  =      F    k-point downsampling of WAVECAR
   LCHARG       =      T    write CHGCAR
   LVTOT        =      F    write LOCPOT, total local potential
   LVHAR        =      F    write LOCPOT, Hartree potential only
   WRT_POTENTIAL= false  ! write potential to hdf5 file
   LELF         =      F    write electronic localiz. function (ELF)
   LORBIT       =     11    0 simple, 1 ext, 2 COOP (PROOUT), +10 PAW based schemes


 Dipole corrections
   LMONO      =      F    monopole corrections only (constant potential shift)
   LDIPOL     =      F    correct potential (dipole corrections)
   IDIPOL     =      0    1-x, 2-y, 3-z, 4-all directions 
   EPSILON    =  1.0000000 bulk dielectric constant
   LVACPOTAV  =      F  vacuum potentials using an averaging scheme for the charge density
   VACPOTFLAT =  0.1000000 required flatness to determine vacuum potential
 LDA+U is selected, type is set to LDAUTYPE =  2
   angular momentum for each species LDAUL =     2   -1
   U (eV)           for each species LDAUU =   3.0  0.0
   J (eV)           for each species LDAUJ =   0.0  0.0
 Exchange correlation treatment:
   GGA     = PE    functional components
   XC_C    = 1    coefficients multiplying the functional components
   LIBXC   =     F    Libxc                    
   VOSKOWN =     0    Vosko Wilk Nusair interpolation
   LHFCALC =     F    Hartree Fock is set to
   LHFONE  =     F    Hartree Fock one center treatment
   AEXX    =    0.0000 exact exchange contribution

 Parameters of functionals:
   PE:
     No parameter

 Van der Waals corrections
   IVDW    =    11    specifies the selected vdW correction

 Linear response parameters
   LEPSILON=     F    determine dielectric tensor
   LRPA    =     F    only Hartree local field effects (RPA)
   LNABLA  =     F    use nabla operator in PAW spheres
   LVEL    =     F    velocity operator in full k-point grid
   CSHIFT  =0.1000    complex shift for real part using Kramers Kronig
   OMEGAMAX=  -1.0    maximum frequency
   DEG_THRESHOLD= 0.2000000E-02 threshold for treating states as degnerate
   RTIME   =   -0.100 relaxation time in fs
  (WPLASMAI=    0.000 imaginary part of plasma frequency in eV, 0.658/RTIME)
   DFIELD  = 0.0000000 0.0000000 0.0000000 field for delta impulse in time

  Optional k-point grid parameters
   LKPOINTS_OPT  =     F    use optional k-point grid
   KPOINTS_OPT_MODE=     1    mode for optional k-point grid

 Orbital magnetization related:
   ORBITALMAG=     F  switch on orbital magnetization
   LCHIMAG   =     F  perturbation theory with respect to B field
   DQ        =  0.001000  dq finite difference perturbation B field
   LLRAUG    =     F  two centre corrections for induced B field
   LBONE     =     F  B-component reconstruction in AE one-centre
   LVGVCALC  =     T  calculate vGv susceptibility
   LVGVAPPL  =     F  apply vGv susceptibility instead of pGv for G=0

 Random number generation:
   RANDOM_GENERATOR = DEFAULT
   PCG_SEED         = not used


--------------------------------------------------------------------------------------------------------


 conjugate gradient relaxation of ions
 charge density and potential will be updated during run
 spin polarized calculation
 RMM-DIIS sequential band-by-band and
  variant of blocked Davidson during initial phase
 perform sub-space diagonalisation
    before iterative eigenvector-optimisation
 modified Broyden-mixing scheme, WC =      100.0
 initial mixing is a Kerker type mixing with AMIX =  0.4000 and BMIX =      1.0000
 Hartree-type preconditioning will be used
 using additional bands           11
 reciprocal scheme for non local part
 use partial core corrections
 calculate Harris-corrections to forces   (improved forces if not selfconsistent)
 use gradient corrections 
 use of overlap-Matrix (Vanderbilt PP)
 Gauss-broadening in eV      SIGMA  =   0.01


--------------------------------------------------------------------------------------------------------


  energy-cutoff  :      350.00
  volume of cell :      970.28
      direct lattice vectors                 reciprocal lattice vectors
     6.979410653  0.000000000  0.000000000     0.143278573  0.082721923 -0.000000000
    -3.489705327  6.044346929  0.000000000     0.000000000  0.165443846  0.000000000
     0.000000000  0.000000000 23.000000000     0.000000000 -0.000000000  0.043478261

  length of vectors
     6.979410653  6.979410653 23.000000000     0.165443846  0.165443846  0.043478261



 k-points in units of 2pi/SCALE and weight: 1 Automatic mesh                        
   0.00000000  0.00000000  0.00000000       0.007
   0.01193988  0.00689349  0.00000000       0.042
   0.02387976  0.01378699  0.00000000       0.042
   0.03581964  0.02068048  0.00000000       0.042
   0.04775952  0.02757397  0.00000000       0.042
   0.05969941  0.03446747  0.00000000       0.042
   0.07163929  0.04136096  0.00000000       0.021
   0.01193988  0.02068048  0.00000000       0.042
   0.02387976  0.02757397  0.00000000       0.042
  -0.02387976  0.02757397  0.00000000       0.042
   0.03581964  0.03446747  0.00000000       0.042
  -0.03581964  0.03446747  0.00000000       0.042
   0.04775952  0.04136096  0.00000000       0.042
  -0.04775952  0.04136096  0.00000000       0.042
   0.05969941  0.04825445  0.00000000       0.042
  -0.05969941  0.04825445  0.00000000       0.042
   0.02387976  0.04136096  0.00000000       0.042
   0.03581964  0.04825445  0.00000000       0.042
  -0.03581964  0.04825445  0.00000000       0.042
   0.04775952  0.05514795  0.00000000       0.042
  -0.04775952  0.05514795  0.00000000       0.042
   0.05969941  0.06204144  0.00000000       0.042
   0.03581964  0.06204144  0.00000000       0.042
   0.04775952  0.06893494  0.00000000       0.042
  -0.04775952 -0.09650891  0.00000000       0.042
   0.04775952  0.08272192  0.00000000       0.014

 k-points in reciprocal lattice and weights: 1 Automatic mesh                        
   0.00000000  0.00000000  0.00000000       0.007
   0.08333333  0.00000000  0.00000000       0.042
   0.16666667  0.00000000  0.00000000       0.042
   0.25000000  0.00000000  0.00000000       0.042
   0.33333333  0.00000000  0.00000000       0.042
   0.41666667  0.00000000  0.00000000       0.042
   0.50000000  0.00000000  0.00000000       0.021
   0.08333333  0.08333333  0.00000000       0.042
   0.16666667  0.08333333  0.00000000       0.042
  -0.16666667  0.25000000  0.00000000       0.042
   0.25000000  0.08333333  0.00000000       0.042
  -0.25000000  0.33333333  0.00000000       0.042
   0.33333333  0.08333333  0.00000000       0.042
  -0.33333333  0.41666667  0.00000000       0.042
   0.41666667  0.08333333  0.00000000       0.042
  -0.41666667  0.50000000  0.00000000       0.042
   0.16666667  0.16666667  0.00000000       0.042
   0.25000000  0.16666667  0.00000000       0.042
  -0.25000000  0.41666667  0.00000000       0.042
   0.33333333  0.16666667  0.00000000       0.042
  -0.33333333  0.50000000  0.00000000       0.042
   0.41666667  0.16666667  0.00000000       0.042
   0.25000000  0.25000000  0.00000000       0.042
   0.33333333  0.25000000  0.00000000       0.042
  -0.33333333 -0.41666667  0.00000000       0.042
   0.33333333  0.33333333  0.00000000       0.014

 position of ions in fractional coordinates (direct lattice) 
   0.00000000  0.00000000  0.50000144
   0.66666667  0.33333336  0.49999208
   0.98136694  0.31468982  0.43050815
   0.68531021  0.66667718  0.43050815
   0.33332285  0.01863309  0.43050815
   0.68533642  0.01868286  0.56949185
   0.98131717  0.66665362  0.56949185
   0.33334641  0.31466361  0.56949185

 position of ions in cartesian coordinates  (Angst):
   0.00000000  0.00000000 11.50003309
   3.48970522  2.01478250 11.49981774
   5.75118813  1.90209444  9.90168752
   2.45655449  4.02962818  9.90168752
   2.26137304  0.11262488  9.90168752
   4.71804663  0.11292571 13.09831248
   4.52259080  4.02948576 13.09831248
   1.22847822  1.90193602 13.09831248



--------------------------------------------------------------------------------------------------------


 k-point     1 :   0.0000 0.0000 0.0000  plane waves:   14447
 k-point     2 :   0.0833 0.0000 0.0000  plane waves:   14465
 k-point     3 :   0.1667 0.0000 0.0000  plane waves:   14449
 k-point     4 :   0.2500 0.0000 0.0000  plane waves:   14438
 k-point     5 :   0.3333 0.0000 0.0000  plane waves:   14402
 k-point     6 :   0.4167 0.0000 0.0000  plane waves:   14400
 k-point     7 :   0.5000 0.0000 0.0000  plane waves:   14404
 k-point     8 :   0.0833 0.0833 0.0000  plane waves:   14497
 k-point     9 :   0.1667 0.0833 0.0000  plane waves:   14446
 k-point    10 :  -0.1667 0.2500 0.0000  plane waves:   14446
 k-point    11 :   0.2500 0.0833 0.0000  plane waves:   14413
 k-point    12 :  -0.2500 0.3333 0.0000  plane waves:   14413
 k-point    13 :   0.3333 0.0833 0.0000  plane waves:   14397
 k-point    14 :  -0.3333 0.4167 0.0000  plane waves:   14397
 k-point    15 :   0.4167 0.0833 0.0000  plane waves:   14415
 k-point    16 :  -0.4167 0.5000 0.0000  plane waves:   14415
 k-point    17 :   0.1667 0.1667 0.0000  plane waves:   14411
 k-point    18 :   0.2500 0.1667 0.0000  plane waves:   14415
 k-point    19 :  -0.2500 0.4167 0.0000  plane waves:   14415
 k-point    20 :   0.3333 0.1667 0.0000  plane waves:   14407
 k-point    21 :  -0.3333 0.5000 0.0000  plane waves:   14407
 k-point    22 :   0.4167 0.1667 0.0000  plane waves:   14440
 k-point    23 :   0.2500 0.2500 0.0000  plane waves:   14421
 k-point    24 :   0.3333 0.2500 0.0000  plane waves:   14419
 k-point    25 :  -0.3333-0.4167 0.0000  plane waves:   14419
 k-point    26 :   0.3333 0.3333 0.0000  plane waves:   14454

 maximum and minimum number of plane-waves per node :      1830     1777

 maximum number of plane-waves:     14497
 maximum index in each direction: 
   IXMAX=   11   IYMAX=   11   IZMAX=   35
   IXMIN=  -11   IYMIN=  -11   IZMIN=  -35


 parallel 3D FFT for wavefunctions:
    minimum data exchange during FFTs selected (reduces bandwidth)
 parallel 3D FFT for charge:
    minimum data exchange during FFTs selected (reduces bandwidth)


 total amount of memory used by VASP MPI-rank0    83238. kBytes
=======================================================================

   base      :      30000. kBytes
   nonl-proj :      13769. kBytes
   fftplans  :      12987. kBytes
   grid      :       9722. kBytes
   one-center:         31. kBytes
   wavefun   :      16729. kBytes

     INWAV:  cpu time      0.0000: real time      0.0000
 Broyden mixing: mesh for mixing (old mesh)
   NGX = 21   NGY = 21   NGZ = 71
  (NGX  = 96   NGY  = 96   NGZ  =280)
  gives a total of  31311 points

 initial charge density was supplied:
 charge density of overlapping atoms calculated
 number of electron      66.0000000 magnetization       8.0000000
 keeping initial charge density in first step


--------------------------------------------------------------------------------------------------------


 Maximum index for augmentation-charges         4630 (set IRDMAX)


--------------------------------------------------------------------------------------------------------


 First call to EWALD:  gamma=   0.179
 Maximum number of real-space cells 4x 4x 1
 Maximum number of reciprocal cells 2x 2x 6

    FEWALD:  cpu time      0.0837: real time      0.0842


--------------------------------------- Ionic step        1  -------------------------------------------




--------------------------------------- Iteration      1(   1)  ---------------------------------------


    POTLOK:  cpu time      0.2066: real time      0.2299
    SETDIJ:  cpu time      0.7728: real time      0.7776
atom =   1  type =  1  l = 2

 onsite density matrix

spin component  1

  0.5706  0.0000  0.0000  0.0000  0.0000
  0.0000  0.5706  0.0000  0.0000  0.0000
  0.0000  0.0000  0.5706  0.0000 -0.0000
  0.0000  0.0000  0.0000  0.5706  0.0000
  0.0000  0.0000 -0.0000  0.0000  0.5706

spin component  2

  0.2853  0.0000  0.0000  0.0000  0.0000
  0.0000  0.2853  0.0000  0.0000  0.0000
  0.0000  0.0000  0.2853  0.0000 -0.0000
  0.0000  0.0000  0.0000  0.2853  0.0000
  0.0000  0.0000 -0.0000  0.0000  0.2853

 occupancies and eigenvectors

  o =  0.2853  v =  0.0000  0.0000  0.0000  0.0000  0.0000  0.0000  0.0000  0.0000  0.7071 -0.7071      0.0000  0.0000  0.0000  0.0000  0.0000  0.0000  0.0000  0.0000  0.0000  0.0000
  o =  0.2853  v =  0.0000  0.0000  0.0000  0.0000  0.0000  0.0000  0.0000  1.0000  0.0000  0.0000      0.0000  0.0000  0.0000  0.0000  0.0000  0.0000  0.0000  0.0000  0.0000  0.0000
  o =  0.2853  v =  0.0000  0.0000  0.0000  0.0000  0.0000  1.0000  0.0000  0.0000  0.0000  0.0000      0.0000  0.0000  0.0000  0.0000  0.0000  0.0000  0.0000  0.0000  0.0000  0.0000
  o =  0.2853  v =  0.0000  0.0000  0.0000  0.0000  0.0000  0.0000  1.0000  0.0000  0.0000  0.0000      0.0000  0.0000  0.0000  0.0000  0.0000  0.0000  0.0000  0.0000  0.0000  0.0000
  o =  0.2853  v =  0.0000  0.0000  0.0000  0.0000  0.0000  0.0000  0.0000  0.0000  0.7071  0.7071      0.0000  0.0000  0.0000  0.0000  0.0000  0.0000  0.0000  0.0000  0.0000  0.0000
  o =  0.5706  v =  0.0000  0.0000  1.0000  0.0000  0.0000  0.0000  0.0000  0.0000  0.0000  0.0000      0.0000  0.0000  0.0000  0.0000  0.0000  0.0000  0.0000  0.0000  0.0000  0.0000
  o =  0.5706  v =  0.0000  0.0000  0.0000  0.0000  1.0000 -0.0000 -0.0000 -0.0000 -0.0000 -0.0000      0.0000  0.0000  0.0000  0.0000  0.0000  0.0000  0.0000  0.0000  0.0000  0.0000
  o =  0.5706  v =  0.0000  1.0000  0.0000  0.0000  0.0000  0.0000  0.0000  0.0000  0.0000  0.0000      0.0000  0.0000  0.0000  0.0000  0.0000  0.0000  0.0000  0.0000  0.0000  0.0000
  o =  0.5706  v =  0.0000  0.0000  0.0000  1.0000  0.0000  0.0000  0.0000  0.0000  0.0000  0.0000      0.0000  0.0000  0.0000  0.0000  0.0000  0.0000  0.0000  0.0000  0.0000  0.0000
  o =  0.5706  v =  1.0000  0.0000  0.0000  0.0000  0.0000  0.0000  0.0000  0.0000  0.0000  0.0000      0.0000  0.0000  0.0000  0.0000  0.0000  0.0000  0.0000  0.0000  0.0000  0.0000

atom =   2  type =  1  l = 2

 onsite density matrix

spin component  1

  0.5706  0.0000  0.0000  0.0000  0.0000
  0.0000  0.5706  0.0000  0.0000  0.0000
  0.0000  0.0000  0.5706  0.0000 -0.0000
  0.0000  0.0000  0.0000  0.5706  0.0000
  0.0000  0.0000 -0.0000  0.0000  0.5706

spin component  2

  0.2853  0.0000  0.0000  0.0000  0.0000
  0.0000  0.2853  0.0000  0.0000  0.0000
  0.0000  0.0000  0.2853  0.0000 -0.0000
  0.0000  0.0000  0.0000  0.2853  0.0000
  0.0000  0.0000 -0.0000  0.0000  0.2853

 occupancies and eigenvectors

  o =  0.2853  v =  0.0000  0.0000  0.0000  0.0000  0.0000  0.0000  0.0000  0.0000  0.7071 -0.7071      0.0000  0.0000  0.0000  0.0000  0.0000  0.0000  0.0000  0.0000  0.0000  0.0000
  o =  0.2853  v =  0.0000  0.0000  0.0000  0.0000  0.0000  0.0000  0.0000  1.0000  0.0000  0.0000      0.0000  0.0000  0.0000  0.0000  0.0000  0.0000  0.0000  0.0000  0.0000  0.0000
  o =  0.2853  v =  0.0000  0.0000  0.0000  0.0000  0.0000  1.0000  0.0000  0.0000  0.0000  0.0000      0.0000  0.0000  0.0000  0.0000  0.0000  0.0000  0.0000  0.0000  0.0000  0.0000
  o =  0.2853  v =  0.0000  0.0000  0.0000  0.0000  0.0000  0.0000  1.0000  0.0000  0.0000  0.0000      0.0000  0.0000  0.0000  0.0000  0.0000  0.0000  0.0000  0.0000  0.0000  0.0000
  o =  0.2853  v =  0.0000  0.0000  0.0000  0.0000  0.0000  0.0000  0.0000  0.0000  0.7071  0.7071      0.0000  0.0000  0.0000  0.0000  0.0000  0.0000  0.0000  0.0000  0.0000  0.0000
  o =  0.5706  v =  0.0000  0.0000  1.0000  0.0000  0.0000  0.0000  0.0000  0.0000  0.0000  0.0000      0.0000  0.0000  0.0000  0.0000  0.0000  0.0000  0.0000  0.0000  0.0000  0.0000
  o =  0.5706  v =  0.0000  0.0000  0.0000  0.0000  1.0000 -0.0000 -0.0000 -0.0000 -0.0000 -0.0000      0.0000  0.0000  0.0000  0.0000  0.0000  0.0000  0.0000  0.0000  0.0000  0.0000
  o =  0.5706  v =  0.0000  1.0000  0.0000  0.0000  0.0000  0.0000  0.0000  0.0000  0.0000  0.0000      0.0000  0.0000  0.0000  0.0000  0.0000  0.0000  0.0000  0.0000  0.0000  0.0000
  o =  0.5706  v =  0.0000  0.0000  0.0000  1.0000  0.0000  0.0000  0.0000  0.0000  0.0000  0.0000      0.0000  0.0000  0.0000  0.0000  0.0000  0.0000  0.0000  0.0000  0.0000  0.0000
  o =  0.5706  v =  1.0000  0.0000  0.0000  0.0000  0.0000  0.0000  0.0000  0.0000  0.0000  0.0000      0.0000  0.0000  0.0000  0.0000  0.0000  0.0000  0.0000  0.0000  0.0000  0.0000

     EDDAV:  cpu time      1.0726: real time      1.2939
       DOS:  cpu time      0.0027: real time      0.0032
    --------------------------------------------
      LOOP:  cpu time      2.0547: real time      2.3047

 eigenvalue-minimisations  :  5472
 total energy-change (2. order) : 0.5020855E+03  (-0.2077772E+04)
 number of electron      66.0000000 magnetization       8.0000000
 augmentation part       66.0000000 magnetization       8.0000000

 Free energy of the ion-electron system (eV)
  ---------------------------------------------------
  alpha Z        PSCENC =        25.68431242
  Ewald energy   TEWEN  =      8046.32202045
  -Hartree energ DENC   =    -12470.88903303
  -exchange      EXHF   =         0.00000000
  -V(xc)+E(xc)   XCENC  =        31.98943486
  PAW double counting   =      3181.75420531    -3114.19982211
  entropy T*S    EENTRO =        -0.00049498
  eigenvalues    EBANDS =      -388.79706635
  atomic energy  EATOM  =      5190.22191875
  Solvation  Ediel_sol  =         0.00000000
  ---------------------------------------------------
  free energy    TOTEN  =       502.08547532 eV

  energy without entropy =      502.08597030  energy(sigma->0) =      502.08572281


--------------------------------------------------------------------------------------------------------




--------------------------------------- Iteration      1(   2)  ---------------------------------------


     EDDAV:  cpu time      1.0682: real time      1.0774
       DOS:  cpu time      0.0025: real time      0.0025
    --------------------------------------------
      LOOP:  cpu time      1.0707: real time      1.0799

 eigenvalue-minimisations  :  6808
 total energy-change (2. order) :-0.4516366E+03  (-0.4324319E+03)
 number of electron      66.0000000 magnetization       8.0000000
 augmentation part       66.0000000 magnetization       8.0000000

 Free energy of the ion-electron system (eV)
  ---------------------------------------------------
  alpha Z        PSCENC =        25.68431242
  Ewald energy   TEWEN  =      8046.32202045
  -Hartree energ DENC   =    -12470.88903303
  -exchange      EXHF   =         0.00000000
  -V(xc)+E(xc)   XCENC  =        31.98943486
  PAW double counting   =      3181.75420531    -3114.19982211
  entropy T*S    EENTRO =        -0.00027188
  eigenvalues    EBANDS =      -840.43390974
  atomic energy  EATOM  =      5190.22191875
  Solvation  Ediel_sol  =         0.00000000
  ---------------------------------------------------
  free energy    TOTEN  =        50.44885502 eV

  energy without entropy =       50.44912691  energy(sigma->0) =       50.44899096


--------------------------------------------------------------------------------------------------------




--------------------------------------- Iteration      1(   3)  ---------------------------------------


     EDDAV:  cpu time      1.0738: real time      1.1533
       DOS:  cpu time      0.0021: real time      0.0021
    --------------------------------------------
      LOOP:  cpu time      1.0759: real time      1.1554

 eigenvalue-minimisations  :  6944
 total energy-change (2. order) :-0.7537808E+02  (-0.7467264E+02)
 number of electron      66.0000000 magnetization       8.0000000
 augmentation part       66.0000000 magnetization       8.0000000

 Free energy of the ion-electron system (eV)
  ---------------------------------------------------
  alpha Z        PSCENC =        25.68431242
  Ewald energy   TEWEN  =      8046.32202045
  -Hartree energ DENC   =    -12470.88903303
  -exchange      EXHF   =         0.00000000
  -V(xc)+E(xc)   XCENC  =        31.98943486
  PAW double counting   =      3181.75420531    -3114.19982211
  entropy T*S    EENTRO =        -0.00000000
  eigenvalues    EBANDS =      -915.81225724
  atomic energy  EATOM  =      5190.22191875
  Solvation  Ediel_sol  =         0.00000000
  ---------------------------------------------------
  free energy    TOTEN  =       -24.92922059 eV

  energy without entropy =      -24.92922059  energy(sigma->0) =      -24.92922059


--------------------------------------------------------------------------------------------------------




--------------------------------------- Iteration      1(   4)  ---------------------------------------


     EDDAV:  cpu time      1.1614: real time      1.1751
       DOS:  cpu time      0.0023: real time      0.0023
    --------------------------------------------
      LOOP:  cpu time      1.1636: real time      1.1773

 eigenvalue-minimisations  :  7432
 total energy-change (2. order) :-0.3746433E+01  (-0.3727274E+01)
 number of electron      66.0000000 magnetization       8.0000000
 augmentation part       66.0000000 magnetization       8.0000000

 Free energy of the ion-electron system (eV)
  ---------------------------------------------------
  alpha Z        PSCENC =        25.68431242
  Ewald energy   TEWEN  =      8046.32202045
  -Hartree energ DENC   =    -12470.88903303
  -exchange      EXHF   =         0.00000000
  -V(xc)+E(xc)   XCENC  =        31.98943486
  PAW double counting   =      3181.75420531    -3114.19982211
  entropy T*S    EENTRO =        -0.00000000
  eigenvalues    EBANDS =      -919.55869064
  atomic energy  EATOM  =      5190.22191875
  Solvation  Ediel_sol  =         0.00000000
  ---------------------------------------------------
  free energy    TOTEN  =       -28.67565399 eV

  energy without entropy =      -28.67565399  energy(sigma->0) =      -28.67565399


--------------------------------------------------------------------------------------------------------




--------------------------------------- Iteration      1(   5)  ---------------------------------------


     EDDAV:  cpu time      1.0565: real time      1.0650
       DOS:  cpu time      0.0009: real time      0.0009
    CHARGE:  cpu time      0.5698: real time      0.5835
    MIXING:  cpu time      0.1614: real time      0.3251
    --------------------------------------------
      LOOP:  cpu time      1.7886: real time      1.9745

 eigenvalue-minimisations  :  7464
 total energy-change (2. order) :-0.1044897E+00  (-0.1043736E+00)
 number of electron      66.0000001 magnetization       7.7777736
 augmentation part        0.5155493 magnetization       5.3348585

 Broyden mixing:
  rms(total) = 0.15337E+01    rms(broyden)= 0.15255E+01
  rms(prec ) = 0.16199E+01
  weight for this iteration     100.00

 Free energy of the ion-electron system (eV)
  ---------------------------------------------------
  alpha Z        PSCENC =        25.68431242
  Ewald energy   TEWEN  =      8046.32202045
  -Hartree energ DENC   =    -12470.88903303
  -exchange      EXHF   =         0.00000000
  -V(xc)+E(xc)   XCENC  =        31.98943486
  PAW double counting   =      3181.75420531    -3114.19982211
  entropy T*S    EENTRO =        -0.00000000
  eigenvalues    EBANDS =      -919.66318036
  atomic energy  EATOM  =      5190.22191875
  Solvation  Ediel_sol  =         0.00000000
  ---------------------------------------------------
  free energy    TOTEN  =       -28.78014372 eV

  energy without entropy =      -28.78014372  energy(sigma->0) =      -28.78014372


--------------------------------------------------------------------------------------------------------




--------------------------------------- Iteration      1(   6)  ---------------------------------------


    POTLOK:  cpu time      0.1546: real time      0.1566
    SETDIJ:  cpu time      0.8129: real time      0.8171
atom =   1  type =  1  l = 2

 onsite density matrix

spin component  1

  0.8075 -0.2849  0.0000 -0.0001  0.0000
 -0.2849  0.5628 -0.0000 -0.0000 -0.0001
  0.0000 -0.0000  0.9941 -0.0000 -0.0000
 -0.0001 -0.0000 -0.0000  0.5628  0.2849
  0.0000 -0.0001 -0.0000  0.2849  0.8075

spin component  2

 -0.0150  0.1902 -0.0000  0.0000 -0.0000
  0.1902  0.1461  0.0000  0.0000  0.0000
 -0.0000  0.0000 -0.1413  0.0000  0.0000
  0.0000  0.0000  0.0000  0.1461 -0.1902
 -0.0000  0.0000  0.0000 -0.1902 -0.0150

 occupancies and eigenvectors

  o = -0.1413  v =  0.0000  0.0000  0.0000  0.0000  0.0000  0.0000 -0.0000  1.0000 -0.0000 -0.0000      0.0000  0.0000  0.0000  0.0000  0.0000  0.0000  0.0000 -0.0000  0.0000  0.0000
  o = -0.1410  v =  0.0000  0.0000  0.0000  0.0000  0.0000 -0.3288  0.2179 -0.0000 -0.5075 -0.7661      0.0000  0.0000  0.0000  0.0000  0.0000  0.0000  0.0000  0.0000  0.0000  0.0000
  o = -0.1410  v =  0.0000  0.0000  0.0000  0.0000  0.0000  0.7661 -0.5075 -0.0000 -0.2179 -0.3288      0.0000  0.0000  0.0000  0.0000  0.0000  0.0000  0.0000  0.0000  0.0000  0.0000
  o =  0.2720  v = -0.0000 -0.0000 -0.0000 -0.0000 -0.0000  0.0260  0.0391 -0.0000  0.8327 -0.5517      0.0000  0.0000  0.0000  0.0000  0.0000 -0.0000 -0.0000  0.0000 -0.0000  0.0000
  o =  0.2720  v =  0.0000  0.0000  0.0000  0.0000  0.0000  0.5517  0.8327 -0.0000 -0.0391  0.0260      0.0000  0.0000  0.0000  0.0000  0.0000  0.0000  0.0000  0.0000  0.0000  0.0000
  o =  0.3751  v =  0.5502  0.8350 -0.0000  0.0002 -0.0000  0.0000  0.0000  0.0000  0.0000  0.0000      0.0000 -0.0000  0.0000  0.0000  0.0000  0.0000  0.0000  0.0000  0.0000  0.0000
  o =  0.3751  v =  0.0000 -0.0002  0.0000  0.8350 -0.5502  0.0000  0.0000  0.0000  0.0000  0.0000      0.0000  0.0000  0.0000  0.0000  0.0000  0.0000  0.0000  0.0000  0.0000  0.0000
  o =  0.9941  v =  0.0000 -0.0000 -1.0000 -0.0000 -0.0000  0.0000  0.0000  0.0000  0.0000  0.0000      0.0000  0.0000  0.0000  0.0000  0.0000  0.0000  0.0000  0.0000  0.0000  0.0000
  o =  0.9952  v = -0.8350  0.5502 -0.0000  0.0001 -0.0000  0.0000  0.0000  0.0000  0.0000  0.0000      0.0000  0.0000  0.0000  0.0000  0.0000  0.0000  0.0000  0.0000  0.0000  0.0000
  o =  0.9952  v =  0.0000 -0.0001 -0.0000  0.5502  0.8350  0.0000  0.0000  0.0000  0.0000  0.0000      0.0000  0.0000  0.0000  0.0000  0.0000  0.0000  0.0000  0.0000  0.0000  0.0000

atom =   2  type =  1  l = 2

 onsite density matrix

spin component  1

  0.8075 -0.2850  0.0000  0.0000  0.0000
 -0.2850  0.5628 -0.0000 -0.0000  0.0000
  0.0000 -0.0000  0.9941 -0.0000 -0.0000
  0.0000 -0.0000 -0.0000  0.5628  0.2850
  0.0000  0.0000 -0.0000  0.2850  0.8075

spin component  2

 -0.0150  0.1902 -0.0000 -0.0000 -0.0000
  0.1902  0.1461  0.0000  0.0000 -0.0000
 -0.0000  0.0000 -0.1413  0.0000  0.0000
 -0.0000  0.0000  0.0000  0.1461 -0.1902
 -0.0000 -0.0000  0.0000 -0.1902 -0.0150

 occupancies and eigenvectors

  o = -0.1413  v =  0.0000  0.0000  0.0000  0.0000  0.0000  0.0000 -0.0000  1.0000  0.0000  0.0000      0.0000  0.0000  0.0000  0.0000  0.0000  0.0000  0.0000 -0.0000  0.0000  0.0000
  o = -0.1410  v =  0.0000  0.0000  0.0000  0.0000  0.0000 -0.7079  0.4689  0.0000 -0.2918 -0.4404      0.0000  0.0000  0.0000  0.0000  0.0000  0.0000  0.0000  0.0000  0.0000  0.0000
  o = -0.1410  v = -0.0000 -0.0000 -0.0000 -0.0000 -0.0000  0.4404 -0.2918 -0.0000 -0.4689 -0.7079      0.0000  0.0000  0.0000  0.0000  0.0000 -0.0000  0.0000  0.0000 -0.0000 -0.0000
  o =  0.2721  v =  0.0000  0.0000  0.0000  0.0000  0.0000 -0.5522 -0.8336  0.0000  0.0095 -0.0062      0.0000  0.0000  0.0000  0.0000  0.0000  0.0000  0.0000  0.0000  0.0000  0.0000
  o =  0.2721  v = -0.0000 -0.0000 -0.0000 -0.0000 -0.0000  0.0062  0.0095 -0.0000  0.8336 -0.5522      0.0000  0.0000  0.0000  0.0000  0.0000 -0.0000 -0.0000  0.0000 -0.0000  0.0000
  o =  0.3750  v =  0.5502  0.8350 -0.0000 -0.0001 -0.0000  0.0000  0.0000  0.0000  0.0000  0.0000      0.0000 -0.0000  0.0000  0.0000  0.0000  0.0000  0.0000  0.0000  0.0000  0.0000
  o =  0.3750  v = -0.0000 -0.0001  0.0000 -0.8350  0.5502 -0.0000 -0.0000 -0.0000 -0.0000 -0.0000      0.0000 -0.0000 -0.0000 -0.0000 -0.0000  0.0000  0.0000  0.0000  0.0000  0.0000
  o =  0.9941  v =  0.0000 -0.0000 -1.0000  0.0000  0.0000  0.0000  0.0000  0.0000  0.0000  0.0000      0.0000  0.0000  0.0000  0.0000  0.0000  0.0000  0.0000  0.0000  0.0000  0.0000
  o =  0.9952  v =  0.0000 -0.0001 -0.0000 -0.5502 -0.8350  0.0000  0.0000  0.0000  0.0000  0.0000      0.0000  0.0000  0.0000  0.0000  0.0000  0.0000  0.0000  0.0000  0.0000  0.0000
  o =  0.9952  v = -0.8350  0.5502 -0.0000 -0.0001 -0.0000  0.0000  0.0000  0.0000  0.0000  0.0000      0.0000  0.0000  0.0000  0.0000  0.0000  0.0000  0.0000  0.0000  0.0000  0.0000

    EDDIAG:  cpu time      0.1767: real time      0.1781
  RMM-DIIS:  cpu time      0.6792: real time      0.6849
    ORTHCH:  cpu time      0.0139: real time      0.0140
       DOS:  cpu time      0.0014: real time      0.0015
    CHARGE:  cpu time      0.2806: real time      0.2836
    MIXING:  cpu time      0.0242: real time      0.0536
    --------------------------------------------
      LOOP:  cpu time      2.1436: real time      2.1893

 eigenvalue-minimisations  :  4900
 total energy-change (2. order) : 0.1167424E+01  (-0.2597622E+01)
 number of electron      66.0000001 magnetization       7.6707912
 augmentation part        3.1745757 magnetization       6.0663942

 Broyden mixing:
  rms(total) = 0.13235E+01    rms(broyden)= 0.13220E+01
  rms(prec ) = 0.13835E+01
  weight for this iteration     100.00

 eigenvalues of (default mixing * dielectric matrix)
  average eigenvalue GAMMA=   0.5156
  0.5156

 Free energy of the ion-electron system (eV)
  ---------------------------------------------------
  alpha Z        PSCENC =        25.68431242
  Ewald energy   TEWEN  =      8046.32202045
  -Hartree energ DENC   =    -12376.09296972
  -exchange      EXHF   =         0.00000000
  -V(xc)+E(xc)   XCENC  =        29.03087350
  PAW double counting   =      3054.70936608    -2979.35781000
  entropy T*S    EENTRO =        -0.00000000
  eigenvalues    EBANDS =     -1018.13043128
  atomic energy  EATOM  =      5190.22191875
  Solvation  Ediel_sol  =         0.00000000
  ---------------------------------------------------
  free energy    TOTEN  =       -27.61271979 eV

  energy without entropy =      -27.61271979  energy(sigma->0) =      -27.61271979


--------------------------------------------------------------------------------------------------------




--------------------------------------- Iteration      1(   7)  ---------------------------------------


    POTLOK:  cpu time      0.1476: real time      0.1497
    SETDIJ:  cpu time      0.7552: real time      0.7596
atom =   1  type =  1  l = 2

 onsite density matrix

spin component  1

  0.7522 -0.1775  0.0000 -0.0000  0.0000
 -0.1775  0.6022 -0.0000 -0.0000 -0.0000
  0.0000 -0.0000  0.8692 -0.0000 -0.0000
 -0.0000 -0.0000 -0.0000  0.6022  0.1775
  0.0000 -0.0000 -0.0000  0.1775  0.7522

spin component  2

  0.0599  0.0968 -0.0000 -0.0000 -0.0000
  0.0968  0.1391  0.0000 -0.0000 -0.0000
 -0.0000  0.0000 -0.0064  0.0000  0.0000
 -0.0000 -0.0000  0.0000  0.1391 -0.0968
 -0.0000 -0.0000  0.0000 -0.0968  0.0599

 occupancies and eigenvectors

  o = -0.0064  v =  0.0000  0.0000  0.0000  0.0000  0.0000 -0.0000  0.0000 -1.0000  0.0000  0.0000      0.0000  0.0000  0.0000  0.0000  0.0000  0.0000  0.0000  0.0000  0.0000  0.0000
  o = -0.0050  v =  0.0000  0.0000  0.0000  0.0000  0.0000 -0.0772  0.0517 -0.0000 -0.5550 -0.8266      0.0000  0.0000  0.0000  0.0000  0.0000  0.0000  0.0000  0.0000  0.0000  0.0000
  o = -0.0050  v =  0.0000  0.0000  0.0000  0.0000  0.0000  0.8266 -0.5550 -0.0000 -0.0517 -0.0772      0.0000  0.0000  0.0000  0.0000  0.0000  0.0000  0.0000  0.0000  0.0000  0.0000
  o =  0.2041  v =  0.0000  0.0000  0.0000  0.0000  0.0000  0.0000  0.0002 -0.0000  0.8302 -0.5574      0.0000  0.0000  0.0000  0.0000  0.0000  0.0000  0.0000  0.0000  0.0000  0.0000
  o =  0.2041  v =  0.0000  0.0000  0.0000  0.0000  0.0000  0.5574  0.8302 -0.0000 -0.0002  0.0000      0.0000  0.0000  0.0000  0.0000  0.0000  0.0000  0.0000  0.0000  0.0000  0.0000
  o =  0.4845  v =  0.5527  0.8334 -0.0000  0.0002 -0.0000  0.0000  0.0000  0.0000  0.0000  0.0000      0.0000 -0.0000  0.0000  0.0000  0.0000  0.0000  0.0000  0.0000  0.0000  0.0000
  o =  0.4845  v = -0.0000  0.0002 -0.0000 -0.8334  0.5527 -0.0000 -0.0000 -0.0000 -0.0000 -0.0000      0.0000  0.0000  0.0000 -0.0000 -0.0000  0.0000  0.0000  0.0000  0.0000  0.0000
  o =  0.8692  v =  0.0000 -0.0000 -1.0000 -0.0000 -0.0000  0.0000  0.0000  0.0000  0.0000  0.0000      0.0000  0.0000  0.0000  0.0000  0.0000  0.0000  0.0000  0.0000  0.0000  0.0000
  o =  0.8699  v = -0.8334  0.5527 -0.0000  0.0001 -0.0000  0.0000  0.0000  0.0000  0.0000  0.0000      0.0000  0.0000  0.0000  0.0000  0.0000  0.0000  0.0000  0.0000  0.0000  0.0000
  o =  0.8699  v =  0.0000  0.0001  0.0000 -0.5527 -0.8334  0.0000  0.0000  0.0000  0.0000  0.0000      0.0000  0.0000  0.0000  0.0000  0.0000  0.0000  0.0000  0.0000  0.0000  0.0000

atom =   2  type =  1  l = 2

 onsite density matrix

spin component  1

  0.7520 -0.1769  0.0000 -0.0000  0.0000
 -0.1769  0.6023 -0.0000 -0.0000 -0.0000
  0.0000 -0.0000  0.8691 -0.0000 -0.0000
 -0.0000 -0.0000 -0.0000  0.6023  0.1769
  0.0000 -0.0000 -0.0000  0.1769  0.7520

spin component  2

  0.0596  0.0960 -0.0000  0.0001 -0.0000
  0.0960  0.1389  0.0000  0.0000  0.0001
 -0.0000  0.0000 -0.0063  0.0000  0.0000
  0.0001  0.0000  0.0000  0.1389 -0.0960
 -0.0000  0.0001  0.0000 -0.0960  0.0596

 occupancies and eigenvectors

  o = -0.0063  v =  0.0000  0.0000  0.0000  0.0000  0.0000 -0.0000  0.0000 -1.0000  0.0000  0.0000      0.0000  0.0000  0.0000  0.0000  0.0000  0.0000  0.0000  0.0000  0.0000  0.0000
  o = -0.0046  v =  0.0000  0.0000  0.0000  0.0000  0.0000  0.8090 -0.5412  0.0000  0.1273  0.1908      0.0000  0.0000  0.0000  0.0000  0.0000  0.0000  0.0000  0.0000  0.0000  0.0000
  o = -0.0046  v =  0.0000  0.0000  0.0000  0.0000  0.0000 -0.1908  0.1273  0.0000  0.5412  0.8090      0.0000  0.0000  0.0000  0.0000  0.0000  0.0000  0.0000  0.0000  0.0000  0.0000
  o =  0.2030  v =  0.0000  0.0000  0.0000  0.0000  0.0000 -0.0000 -0.0005  0.0000  0.8312 -0.5559      0.0000  0.0000  0.0000  0.0000  0.0000  0.0000  0.0000  0.0000  0.0000  0.0000
  o =  0.2030  v =  0.0000  0.0000  0.0000  0.0000  0.0000  0.5559  0.8312 -0.0000  0.0005 -0.0000      0.0000  0.0000  0.0000  0.0000  0.0000  0.0000  0.0000  0.0000  0.0000  0.0000
  o =  0.4851  v =  0.0000  0.0002 -0.0000 -0.8336  0.5524  0.0000  0.0000  0.0000  0.0000  0.0000      0.0000 -0.0000  0.0000  0.0000 -0.0000  0.0000  0.0000  0.0000  0.0000  0.0000
  o =  0.4851  v =  0.5524  0.8336 -0.0000  0.0002 -0.0000  0.0000  0.0000  0.0000  0.0000  0.0000      0.0000 -0.0000  0.0000  0.0000  0.0000  0.0000  0.0000  0.0000  0.0000  0.0000
  o =  0.8691  v = -0.0000  0.0000  1.0000 -0.0000 -0.0000 -0.0000 -0.0000 -0.0000 -0.0000 -0.0000      0.0000  0.0000 -0.0000  0.0000  0.0000  0.0000  0.0000  0.0000  0.0000  0.0000
  o =  0.8693  v =  0.0000  0.0002 -0.0000 -0.5524 -0.8336  0.0000  0.0000  0.0000  0.0000  0.0000      0.0000  0.0000  0.0000  0.0000  0.0000  0.0000  0.0000  0.0000  0.0000  0.0000
  o =  0.8693  v = -0.8336  0.5524 -0.0000  0.0002 -0.0000  0.0000  0.0000  0.0000  0.0000  0.0000      0.0000  0.0000  0.0000  0.0000  0.0000  0.0000  0.0000  0.0000  0.0000  0.0000

    EDDIAG:  cpu time      0.1763: real time      0.1776
  RMM-DIIS:  cpu time      0.7139: real time      0.7197
    ORTHCH:  cpu time      0.0108: real time      0.0109
       DOS:  cpu time      0.0066: real time      0.0067
    CHARGE:  cpu time      0.2594: real time      0.2626
    MIXING:  cpu time      0.0272: real time      0.0275
    --------------------------------------------
      LOOP:  cpu time      2.0971: real time      2.1142

 eigenvalue-minimisations  :  5072
 total energy-change (2. order) :-0.1216304E+00  (-0.4302998E+00)
 number of electron      66.0000001 magnetization       7.4590804
 augmentation part        1.8918491 magnetization       5.7022956

 Broyden mixing:
  rms(total) = 0.25096E+00    rms(broyden)= 0.24814E+00
  rms(prec ) = 0.25827E+00
  weight for this iteration     100.00

 eigenvalues of (default mixing * dielectric matrix)
  average eigenvalue GAMMA=   0.6533
  0.6533  0.6533

 Free energy of the ion-electron system (eV)
  ---------------------------------------------------
  alpha Z        PSCENC =        25.68431242
  Ewald energy   TEWEN  =      8046.32202045
  -Hartree energ DENC   =    -12417.38636224
  -exchange      EXHF   =         0.00000000
  -V(xc)+E(xc)   XCENC  =        30.29742828
  PAW double counting   =      3120.27388387    -3051.03982360
  entropy T*S    EENTRO =        -0.00000000
  eigenvalues    EBANDS =      -972.10772812
  atomic energy  EATOM  =      5190.22191875
  Solvation  Ediel_sol  =         0.00000000
  ---------------------------------------------------
  free energy    TOTEN  =       -27.73435018 eV

  energy without entropy =      -27.73435018  energy(sigma->0) =      -27.73435018


--------------------------------------------------------------------------------------------------------




--------------------------------------- Iteration      1(   8)  ---------------------------------------


    POTLOK:  cpu time      0.2058: real time      0.2074
    SETDIJ:  cpu time      0.6942: real time      0.6994
atom =   1  type =  1  l = 2

 onsite density matrix

spin component  1

  0.7372 -0.1871  0.0000 -0.0001  0.0000
 -0.1871  0.5869 -0.0000 -0.0000 -0.0001
  0.0000 -0.0000  0.8621 -0.0000 -0.0000
 -0.0001 -0.0000 -0.0000  0.5869  0.1871
  0.0000 -0.0001 -0.0000  0.1871  0.7372

spin component  2

  0.0694  0.0725 -0.0000 -0.0000 -0.0000
  0.0725  0.1236  0.0000  0.0000 -0.0000
 -0.0000  0.0000  0.0180  0.0000  0.0000
 -0.0000  0.0000  0.0000  0.1236 -0.0725
 -0.0000 -0.0000  0.0000 -0.0725  0.0694

 occupancies and eigenvectors

  o =  0.0180  v =  0.0000  0.0000  0.0000  0.0000  0.0000 -0.0000  0.0000 -1.0000  0.0000  0.0000      0.0000  0.0000  0.0000  0.0000  0.0000  0.0000  0.0000  0.0000  0.0000  0.0000
  o =  0.0191  v =  0.0000  0.0000  0.0000  0.0000  0.0000  0.8189 -0.5683 -0.0000  0.0458  0.0660      0.0000  0.0000  0.0000  0.0000  0.0000  0.0000  0.0000  0.0000  0.0000  0.0000
  o =  0.0191  v =  0.0000  0.0000  0.0000  0.0000  0.0000 -0.0660  0.0458  0.0000  0.5683  0.8189      0.0000  0.0000  0.0000  0.0000  0.0000  0.0000  0.0000  0.0000  0.0000  0.0000
  o =  0.1739  v =  0.0000  0.0000  0.0000  0.0000  0.0000 -0.0000  0.0000  0.0000  0.8215 -0.5701      0.0000  0.0000  0.0000  0.0000  0.0000  0.0000  0.0000  0.0000  0.0000  0.0000
  o =  0.1739  v =  0.0000  0.0000  0.0000  0.0000  0.0000  0.5701  0.8215 -0.0000 -0.0000 -0.0000      0.0000  0.0000  0.0000  0.0000  0.0000  0.0000  0.0000  0.0000  0.0000  0.0000
  o =  0.4604  v =  0.0000  0.0003  0.0000 -0.8285  0.5600  0.0000  0.0000  0.0000  0.0000  0.0000      0.0000 -0.0000  0.0000  0.0000 -0.0000  0.0000  0.0000  0.0000  0.0000  0.0000
  o =  0.4604  v =  0.5600  0.8285 -0.0000  0.0003 -0.0000  0.0000  0.0000  0.0000  0.0000  0.0000      0.0000 -0.0000  0.0000  0.0000  0.0000  0.0000  0.0000  0.0000  0.0000  0.0000
  o =  0.8621  v = -0.0000  0.0000  1.0000  0.0000  0.0000 -0.0000 -0.0000 -0.0000 -0.0000 -0.0000      0.0000  0.0000 -0.0000  0.0000  0.0000  0.0000  0.0000  0.0000  0.0000  0.0000
  o =  0.8637  v =  0.0000  0.0002  0.0000 -0.5600 -0.8285  0.0000  0.0000  0.0000  0.0000  0.0000      0.0000  0.0000  0.0000  0.0000  0.0000  0.0000  0.0000  0.0000  0.0000  0.0000
  o =  0.8637  v = -0.8285  0.5600 -0.0000  0.0002 -0.0000  0.0000  0.0000  0.0000  0.0000  0.0000      0.0000  0.0000  0.0000  0.0000  0.0000  0.0000  0.0000  0.0000  0.0000  0.0000

atom =   2  type =  1  l = 2

 onsite density matrix

spin component  1

  0.7373 -0.1862  0.0000 -0.0001  0.0000
 -0.1862  0.5879 -0.0000 -0.0000 -0.0001
  0.0000 -0.0000  0.8619 -0.0000 -0.0000
 -0.0001 -0.0000 -0.0000  0.5879  0.1862
  0.0000 -0.0001 -0.0000  0.1862  0.7373

spin component  2

  0.0691  0.0720 -0.0000  0.0000 -0.0000
  0.0720  0.1231  0.0000  0.0000  0.0000
 -0.0000  0.0000  0.0181  0.0000 -0.0000
  0.0000  0.0000  0.0000  0.1231 -0.0720
 -0.0000  0.0000 -0.0000 -0.0720  0.0691

 occupancies and eigenvectors

  o =  0.0181  v =  0.0000  0.0000  0.0000  0.0000  0.0000 -0.0000  0.0000 -1.0000 -0.0000 -0.0000      0.0000  0.0000  0.0000  0.0000  0.0000  0.0000  0.0000  0.0000  0.0000  0.0000
  o =  0.0192  v =  0.0000  0.0000  0.0000  0.0000  0.0000  0.7513 -0.5206 -0.0000  0.2309  0.3335      0.0000  0.0000  0.0000  0.0000  0.0000  0.0000  0.0000  0.0000  0.0000  0.0000
  o =  0.0192  v =  0.0000  0.0000  0.0000  0.0000  0.0000 -0.3335  0.2309 -0.0000  0.5206  0.7513      0.0000  0.0000  0.0000  0.0000  0.0000  0.0000  0.0000  0.0000  0.0000  0.0000
  o =  0.1730  v =  0.0000  0.0000  0.0000  0.0000  0.0000 -0.0000 -0.0002  0.0000  0.8220 -0.5696      0.0000  0.0000  0.0000  0.0000  0.0000  0.0000  0.0000  0.0000  0.0000  0.0000
  o =  0.1730  v =  0.0000  0.0000  0.0000  0.0000  0.0000  0.5696  0.8220 -0.0000  0.0002 -0.0000      0.0000  0.0000  0.0000  0.0000  0.0000  0.0000  0.0000  0.0000  0.0000  0.0000
  o =  0.4619  v =  0.5602  0.8284 -0.0000  0.0002 -0.0000  0.0000  0.0000  0.0000  0.0000  0.0000      0.0000 -0.0000  0.0000  0.0000  0.0000  0.0000  0.0000  0.0000  0.0000  0.0000
  o =  0.4619  v =  0.0000  0.0002  0.0000 -0.8284  0.5602  0.0000  0.0000  0.0000  0.0000  0.0000      0.0000 -0.0000  0.0000  0.0000 -0.0000  0.0000  0.0000  0.0000  0.0000  0.0000
  o =  0.8619  v = -0.0000  0.0000  1.0000 -0.0000 -0.0000 -0.0000 -0.0000 -0.0000 -0.0000 -0.0000      0.0000  0.0000 -0.0000  0.0000  0.0000  0.0000  0.0000  0.0000  0.0000  0.0000
  o =  0.8632  v =  0.0000  0.0002 -0.0000 -0.5602 -0.8284  0.0000  0.0000  0.0000  0.0000  0.0000      0.0000  0.0000  0.0000  0.0000  0.0000  0.0000  0.0000  0.0000  0.0000  0.0000
  o =  0.8632  v = -0.8284  0.5602 -0.0000  0.0002 -0.0000  0.0000  0.0000  0.0000  0.0000  0.0000      0.0000  0.0000  0.0000  0.0000  0.0000  0.0000  0.0000  0.0000  0.0000  0.0000

    EDDIAG:  cpu time      0.1892: real time      0.1910
  RMM-DIIS:  cpu time      0.7520: real time      0.7676
    ORTHCH:  cpu time      0.0108: real time      0.0109
       DOS:  cpu time      0.0046: real time      0.0046
    CHARGE:  cpu time      0.2696: real time      0.2732
    MIXING:  cpu time      0.0252: real time      0.0254
    --------------------------------------------
      LOOP:  cpu time      2.1514: real time      2.1795

 eigenvalue-minimisations  :  5403
 total energy-change (2. order) : 0.1285115E+00  (-0.3587053E+00)
 number of electron      66.0000001 magnetization       7.2535145
 augmentation part        2.3703807 magnetization       5.8150825

 Broyden mixing:
  rms(total) = 0.31034E+00    rms(broyden)= 0.31030E+00
  rms(prec ) = 0.33288E+00
  weight for this iteration     100.00

 eigenvalues of (default mixing * dielectric matrix)
  average eigenvalue GAMMA=   0.9001
  1.4745  0.7818  0.4439

 Free energy of the ion-electron system (eV)
  ---------------------------------------------------
  alpha Z        PSCENC =        25.68431242
  Ewald energy   TEWEN  =      8046.32202045
  -Hartree energ DENC   =    -12413.66878893
  -exchange      EXHF   =         0.00000000
  -V(xc)+E(xc)   XCENC  =        30.94924625
  PAW double counting   =      3124.92360266    -3057.35480889
  entropy T*S    EENTRO =        -0.00000000
  eigenvalues    EBANDS =      -974.68334143
  atomic energy  EATOM  =      5190.22191875
  Solvation  Ediel_sol  =         0.00000000
  ---------------------------------------------------
  free energy    TOTEN  =       -27.60583871 eV

  energy without entropy =      -27.60583871  energy(sigma->0) =      -27.60583871


--------------------------------------------------------------------------------------------------------




--------------------------------------- Iteration      1(   9)  ---------------------------------------


    POTLOK:  cpu time      0.2000: real time      0.2041
    SETDIJ:  cpu time      0.7492: real time      0.7556
atom =   1  type =  1  l = 2

 onsite density matrix

spin component  1

  0.7774 -0.2062  0.0000 -0.0001  0.0000
 -0.2062  0.6141 -0.0000 -0.0000 -0.0001
  0.0000 -0.0000  0.9176 -0.0000 -0.0000
 -0.0001 -0.0000 -0.0000  0.6141  0.2062
  0.0000 -0.0001 -0.0000  0.2062  0.7774

spin component  2

  0.0379  0.0710 -0.0000  0.0000 -0.0000
  0.0710  0.0911  0.0000  0.0000  0.0000
 -0.0000  0.0000 -0.0141  0.0000 -0.0000
  0.0000  0.0000  0.0000  0.0911 -0.0710
 -0.0000  0.0000 -0.0000 -0.0710  0.0379

 occupancies and eigenvectors

  o = -0.0141  v =  0.0000  0.0000  0.0000  0.0000  0.0000 -0.0000  0.0000 -1.0000 -0.0000 -0.0000      0.0000  0.0000  0.0000  0.0000  0.0000  0.0000  0.0000  0.0000  0.0000  0.0000
  o = -0.0113  v =  0.0000  0.0000  0.0000  0.0000  0.0000  0.8181 -0.5672 -0.0000  0.0540  0.0779      0.0000  0.0000  0.0000  0.0000  0.0000  0.0000  0.0000  0.0000  0.0000  0.0000
  o = -0.0113  v =  0.0000  0.0000  0.0000  0.0000  0.0000 -0.0779  0.0540 -0.0000  0.5672  0.8181      0.0000  0.0000  0.0000  0.0000  0.0000  0.0000  0.0000  0.0000  0.0000  0.0000
  o =  0.1404  v =  0.0000  0.0000  0.0000  0.0000  0.0000  0.5698  0.8218  0.0000  0.0001 -0.0000      0.0000  0.0000  0.0000  0.0000  0.0000  0.0000  0.0000  0.0000  0.0000  0.0000
  o =  0.1404  v =  0.0000  0.0000  0.0000  0.0000  0.0000 -0.0000 -0.0001  0.0000  0.8218 -0.5698      0.0000  0.0000  0.0000  0.0000  0.0000  0.0000  0.0000  0.0000  0.0000  0.0000
  o =  0.4740  v =  0.5621  0.8271 -0.0000  0.0003 -0.0000  0.0000  0.0000  0.0000  0.0000  0.0000      0.0000 -0.0000  0.0000  0.0000  0.0000  0.0000  0.0000  0.0000  0.0000  0.0000
  o =  0.4740  v = -0.0000  0.0003  0.0000 -0.8271  0.5621 -0.0000 -0.0000 -0.0000 -0.0000 -0.0000      0.0000 -0.0000  0.0000  0.0000 -0.0000  0.0000  0.0000  0.0000  0.0000  0.0000
  o =  0.9175  v =  0.0000  0.0002 -0.0000 -0.5621 -0.8271  0.0000  0.0000  0.0000  0.0000  0.0000      0.0000  0.0000  0.0000  0.0000  0.0000  0.0000  0.0000  0.0000  0.0000  0.0000
  o =  0.9175  v = -0.8271  0.5621 -0.0000  0.0002 -0.0000  0.0000  0.0000  0.0000  0.0000  0.0000      0.0000  0.0000  0.0000  0.0000  0.0000  0.0000  0.0000  0.0000  0.0000  0.0000
  o =  0.9176  v =  0.0000  0.0000  1.0000 -0.0000 -0.0000  0.0000  0.0000  0.0000  0.0000  0.0000      0.0000  0.0000  0.0000  0.0000  0.0000  0.0000  0.0000  0.0000  0.0000  0.0000

atom =   2  type =  1  l = 2

 onsite density matrix

spin component  1

  0.7772 -0.2062  0.0000 -0.0000  0.0000
 -0.2062  0.6143 -0.0000 -0.0000 -0.0000
  0.0000 -0.0000  0.9176 -0.0000 -0.0000
 -0.0000 -0.0000 -0.0000  0.6143  0.2062
  0.0000 -0.0000 -0.0000  0.2062  0.7772

spin component  2

  0.0377  0.0713 -0.0000 -0.0000 -0.0000
  0.0713  0.0911  0.0000  0.0000 -0.0000
 -0.0000  0.0000 -0.0142  0.0000 -0.0000
 -0.0000  0.0000  0.0000  0.0911 -0.0713
 -0.0000 -0.0000 -0.0000 -0.0713  0.0377

 occupancies and eigenvectors

  o = -0.0142  v =  0.0000  0.0000  0.0000  0.0000  0.0000 -0.0000  0.0000 -1.0000 -0.0000 -0.0000      0.0000  0.0000  0.0000  0.0000  0.0000  0.0000  0.0000  0.0000  0.0000  0.0000
  o = -0.0117  v = -0.0000 -0.0000 -0.0000 -0.0000 -0.0000 -0.8187  0.5676  0.0000 -0.0495 -0.0711      0.0000  0.0000  0.0000  0.0000  0.0000  0.0000 -0.0000 -0.0000  0.0000  0.0000
  o = -0.0117  v =  0.0000  0.0000  0.0000  0.0000  0.0000  0.0711 -0.0495  0.0000 -0.5676 -0.8187      0.0000  0.0000  0.0000  0.0000  0.0000  0.0000  0.0000  0.0000  0.0000  0.0000
  o =  0.1406  v =  0.0000  0.0000  0.0000  0.0000  0.0000  0.0000  0.0003  0.0000  0.8218 -0.5697      0.0000  0.0000  0.0000  0.0000  0.0000  0.0000  0.0000  0.0000  0.0000  0.0000
  o =  0.1406  v =  0.0000  0.0000  0.0000  0.0000  0.0000  0.5697  0.8218  0.0000 -0.0003  0.0000      0.0000  0.0000  0.0000  0.0000  0.0000  0.0000  0.0000  0.0000  0.0000  0.0000
  o =  0.4741  v =  0.5624  0.8269 -0.0000  0.0001 -0.0000  0.0000  0.0000  0.0000  0.0000  0.0000      0.0000 -0.0000  0.0000  0.0000  0.0000  0.0000  0.0000  0.0000  0.0000  0.0000
  o =  0.4741  v = -0.0000  0.0001 -0.0000 -0.8269  0.5624 -0.0000 -0.0000 -0.0000 -0.0000 -0.0000      0.0000 -0.0000  0.0000  0.0000 -0.0000  0.0000  0.0000  0.0000  0.0000  0.0000
  o =  0.9175  v =  0.0000  0.0001 -0.0000 -0.5624 -0.8269  0.0000  0.0000  0.0000  0.0000  0.0000      0.0000  0.0000  0.0000  0.0000  0.0000  0.0000  0.0000  0.0000  0.0000  0.0000
  o =  0.9175  v = -0.8269  0.5624 -0.0000  0.0001 -0.0000  0.0000  0.0000  0.0000  0.0000  0.0000      0.0000  0.0000  0.0000  0.0000  0.0000  0.0000  0.0000  0.0000  0.0000  0.0000
  o =  0.9176  v =  0.0000  0.0000  1.0000 -0.0000 -0.0000  0.0000  0.0000  0.0000  0.0000  0.0000      0.0000  0.0000  0.0000  0.0000  0.0000  0.0000  0.0000  0.0000  0.0000  0.0000

    EDDIAG:  cpu time      0.1805: real time      0.1819
  RMM-DIIS:  cpu time      0.7413: real time      0.7491
    ORTHCH:  cpu time      0.0110: real time      0.0113
       DOS:  cpu time      0.0025: real time      0.0026
    CHARGE:  cpu time      0.2720: real time      0.2777
    MIXING:  cpu time      0.0258: real time      0.0260
    --------------------------------------------
      LOOP:  cpu time      2.1823: real time      2.2082

 eigenvalue-minimisations  :  5288
 total energy-change (2. order) : 0.2301873E+00  (-0.4232259E-01)
 number of electron      66.0000001 magnetization       7.1266566
 augmentation part        2.0254366 magnetization       5.5365540

 Broyden mixing:
  rms(total) = 0.11418E+00    rms(broyden)= 0.11352E+00
  rms(prec ) = 0.11478E+00
  weight for this iteration     100.00

 eigenvalues of (default mixing * dielectric matrix)
  average eigenvalue GAMMA=   0.8604
  1.5315  0.7456  0.7456  0.4188

 Free energy of the ion-electron system (eV)
  ---------------------------------------------------
  alpha Z        PSCENC =        25.68431242
  Ewald energy   TEWEN  =      8046.32202045
  -Hartree energ DENC   =    -12426.80436914
  -exchange      EXHF   =         0.00000000
  -V(xc)+E(xc)   XCENC  =        31.66268396
  PAW double counting   =      3154.55489079    -3087.69657254
  entropy T*S    EENTRO =        -0.00000000
  eigenvalues    EBANDS =      -961.32053612
  atomic energy  EATOM  =      5190.22191875
  Solvation  Ediel_sol  =         0.00000000
  ---------------------------------------------------
  free energy    TOTEN  =       -27.37565141 eV

  energy without entropy =      -27.37565141  energy(sigma->0) =      -27.37565141


--------------------------------------------------------------------------------------------------------




--------------------------------------- Iteration      1(  10)  ---------------------------------------


    POTLOK:  cpu time      0.1452: real time      0.1477
    SETDIJ:  cpu time      0.8054: real time      0.8106
atom =   1  type =  1  l = 2

 onsite density matrix

spin component  1

  0.7498 -0.2036  0.0000 -0.0001  0.0000
 -0.2036  0.5903 -0.0000 -0.0000 -0.0001
  0.0000 -0.0000  0.8880 -0.0000 -0.0000
 -0.0001 -0.0000 -0.0000  0.5903  0.2036
  0.0000 -0.0001 -0.0000  0.2036  0.7498

spin component  2

  0.0674  0.0573  0.0000 -0.0000  0.0000
  0.0573  0.1096  0.0000 -0.0000 -0.0000
  0.0000  0.0000  0.0257  0.0000 -0.0000
 -0.0000 -0.0000  0.0000  0.1096 -0.0573
  0.0000 -0.0000 -0.0000 -0.0573  0.0674

 occupancies and eigenvectors

  o =  0.0257  v =  0.0000  0.0000  0.0000  0.0000  0.0000  0.0000 -0.0000 -1.0000 -0.0000 -0.0000      0.0000  0.0000  0.0000  0.0000  0.0000  0.0000  0.0000  0.0000  0.0000  0.0000
  o =  0.0274  v =  0.0000  0.0000  0.0000  0.0000  0.0000  0.8166 -0.5694  0.0000 -0.0540 -0.0775      0.0000  0.0000  0.0000  0.0000  0.0000 -0.0000  0.0000 -0.0000  0.0000  0.0000
  o =  0.0274  v =  0.0000  0.0000  0.0000  0.0000  0.0000  0.0775 -0.0540 -0.0000  0.5694  0.8166      0.0000  0.0000  0.0000  0.0000  0.0000  0.0000  0.0000  0.0000  0.0000  0.0000
  o =  0.1496  v = -0.0000 -0.0000 -0.0000 -0.0000 -0.0000  0.0000  0.0000 -0.0000  0.8203 -0.5719      0.0000  0.0000  0.0000  0.0000  0.0000  0.0000  0.0000  0.0000  0.0000  0.0000
  o =  0.1496  v =  0.0000  0.0000  0.0000  0.0000  0.0000  0.5719  0.8203  0.0000 -0.0000  0.0000      0.0000  0.0000  0.0000  0.0000  0.0000  0.0000  0.0000  0.0000  0.0000  0.0000
  o =  0.4514  v =  0.0000  0.0002 -0.0000 -0.8260  0.5636  0.0000  0.0000  0.0000  0.0000  0.0000      0.0000 -0.0000  0.0000  0.0000 -0.0000  0.0000  0.0000  0.0000  0.0000  0.0000
  o =  0.4514  v =  0.5636  0.8260 -0.0000  0.0002 -0.0000  0.0000  0.0000  0.0000  0.0000  0.0000      0.0000 -0.0000  0.0000  0.0000  0.0000  0.0000  0.0000  0.0000  0.0000  0.0000
  o =  0.8880  v = -0.0000  0.0000  1.0000  0.0000  0.0000 -0.0000 -0.0000 -0.0000 -0.0000 -0.0000      0.0000  0.0000 -0.0000  0.0000  0.0000  0.0000  0.0000  0.0000  0.0000  0.0000
  o =  0.8887  v =  0.0000  0.0002  0.0000 -0.5636 -0.8260  0.0000  0.0000  0.0000  0.0000  0.0000      0.0000  0.0000  0.0000  0.0000  0.0000  0.0000  0.0000  0.0000  0.0000  0.0000
  o =  0.8887  v = -0.8260  0.5636 -0.0000  0.0002 -0.0000  0.0000  0.0000  0.0000  0.0000  0.0000      0.0000  0.0000  0.0000  0.0000  0.0000  0.0000  0.0000  0.0000  0.0000  0.0000

atom =   2  type =  1  l = 2

 onsite density matrix

spin component  1

  0.7496 -0.2032  0.0000 -0.0000  0.0000
 -0.2032  0.5907 -0.0000 -0.0000 -0.0000
  0.0000 -0.0000  0.8879 -0.0000 -0.0000
 -0.0000 -0.0000 -0.0000  0.5907  0.2032
  0.0000 -0.0000 -0.0000  0.2032  0.7496

spin component  2

  0.0673  0.0571  0.0000 -0.0000  0.0000
  0.0571  0.1096  0.0000 -0.0000 -0.0000
  0.0000  0.0000  0.0258  0.0000 -0.0000
 -0.0000 -0.0000  0.0000  0.1096 -0.0571
  0.0000 -0.0000 -0.0000 -0.0571  0.0673

 occupancies and eigenvectors

  o =  0.0258  v =  0.0000  0.0000  0.0000  0.0000  0.0000  0.0000  0.0000 -1.0000 -0.0000 -0.0000      0.0000  0.0000  0.0000  0.0000  0.0000  0.0000  0.0000  0.0000  0.0000  0.0000
  o =  0.0275  v = -0.0000 -0.0000 -0.0000 -0.0000 -0.0000 -0.8206  0.5715  0.0000 -0.0002  0.0000      0.0000  0.0000  0.0000  0.0000  0.0000  0.0000 -0.0000  0.0000  0.0000  0.0000
  o =  0.0275  v =  0.0000  0.0000  0.0000  0.0000  0.0000  0.0000 -0.0002  0.0000 -0.5715 -0.8206      0.0000  0.0000  0.0000  0.0000  0.0000  0.0000  0.0000 -0.0000  0.0000  0.0000
  o =  0.1494  v =  0.0000  0.0000  0.0000  0.0000  0.0000 -0.5715 -0.8206 -0.0000  0.0002 -0.0000      0.0000  0.0000  0.0000  0.0000  0.0000  0.0000  0.0000  0.0000  0.0000  0.0000
  o =  0.1494  v = -0.0000 -0.0000 -0.0000 -0.0000 -0.0000 -0.0000  0.0002 -0.0000  0.8206 -0.5715      0.0000  0.0000  0.0000  0.0000  0.0000  0.0000  0.0000  0.0000  0.0000  0.0000
  o =  0.4520  v =  0.5638  0.8259 -0.0000  0.0001 -0.0000  0.0000  0.0000  0.0000  0.0000  0.0000      0.0000 -0.0000  0.0000  0.0000  0.0000  0.0000  0.0000  0.0000  0.0000  0.0000
  o =  0.4520  v =  0.0000  0.0001  0.0000 -0.8259  0.5638  0.0000  0.0000  0.0000  0.0000  0.0000      0.0000 -0.0000  0.0000  0.0000 -0.0000  0.0000  0.0000  0.0000  0.0000  0.0000
  o =  0.8879  v = -0.0000  0.0000  1.0000  0.0000  0.0000 -0.0000 -0.0000 -0.0000 -0.0000 -0.0000      0.0000  0.0000 -0.0000  0.0000  0.0000  0.0000  0.0000  0.0000  0.0000  0.0000
  o =  0.8883  v =  0.0000  0.0001  0.0000 -0.5638 -0.8259  0.0000  0.0000  0.0000  0.0000  0.0000      0.0000  0.0000  0.0000  0.0000  0.0000  0.0000  0.0000  0.0000  0.0000  0.0000
  o =  0.8883  v = -0.8259  0.5638 -0.0000  0.0001 -0.0000  0.0000  0.0000  0.0000  0.0000  0.0000      0.0000  0.0000  0.0000  0.0000  0.0000  0.0000  0.0000  0.0000  0.0000  0.0000

    EDDIAG:  cpu time      0.1804: real time      0.1833
  RMM-DIIS:  cpu time      0.8665: real time      0.8754
    ORTHCH:  cpu time      0.0556: real time      0.0559
       DOS:  cpu time      0.0064: real time      0.0065
    CHARGE:  cpu time      0.3200: real time      0.3235
    MIXING:  cpu time      0.0295: real time      0.0300
    --------------------------------------------
      LOOP:  cpu time      2.4091: real time      2.4329

 eigenvalue-minimisations  :  5897
 total energy-change (2. order) :-0.2244882E+00  (-0.1410986E-01)
 number of electron      66.0000001 magnetization       6.8904956
 augmentation part        2.0085520 magnetization       5.2607134

 Broyden mixing:
  rms(total) = 0.79874E-01    rms(broyden)= 0.79768E-01
  rms(prec ) = 0.80906E-01
  weight for this iteration     100.00

 eigenvalues of (default mixing * dielectric matrix)
  average eigenvalue GAMMA=   1.0769
  2.4813  0.9151  0.9151  0.6412  0.4317

 Free energy of the ion-electron system (eV)
  ---------------------------------------------------
  alpha Z        PSCENC =        25.68431242
  Ewald energy   TEWEN  =      8046.32202045
  -Hartree energ DENC   =    -12428.29443657
  -exchange      EXHF   =         0.00000000
  -V(xc)+E(xc)   XCENC  =        31.41093382
  PAW double counting   =      3159.98386256    -3093.89721841
  entropy T*S    EENTRO =        -0.00000000
  eigenvalues    EBANDS =      -959.03153266
  atomic energy  EATOM  =      5190.22191875
  Solvation  Ediel_sol  =         0.00000000
  ---------------------------------------------------
  free energy    TOTEN  =       -27.60013962 eV

  energy without entropy =      -27.60013962  energy(sigma->0) =      -27.60013962


[...]
     40       0.3053      0.00000
     41       1.8930      0.00000
     42       2.1084      0.00000
     43       2.5697      0.00000
     44       2.8159      0.00000

 k-point    26 :       0.3333    0.3333    0.0000
  band No.  band energies     occupation 
      1     -44.2680      1.00000
      2     -44.2680      1.00000
      3     -44.2373      1.00000
      4     -44.2357      1.00000
      5     -44.2357      1.00000
      6     -44.2341      1.00000
      7     -15.4548      1.00000
      8     -15.4548      1.00000
      9     -15.1821      1.00000
     10     -15.0407      1.00000
     11     -15.0407      1.00000
     12     -14.9528      1.00000
     13      -6.9181      1.00000
     14      -6.9181      1.00000
     15      -6.3356      1.00000
     16      -6.3356      1.00000
     17      -6.3267      1.00000
     18      -5.7728      1.00000
     19      -5.7006      1.00000
     20      -5.7006      1.00000
     21      -5.1523      1.00000
     22      -5.0413      1.00000
     23      -4.6890      1.00000
     24      -4.6039      1.00000
     25      -4.6039      1.00000
     26      -4.2244      1.00000
     27      -4.2244      1.00000
     28      -4.1853      1.00000
     29      -3.8519      1.00000
     30      -3.8519      1.00000
     31      -0.5030      0.00000
     32      -0.5029      0.00000
     33      -0.3597      0.00000
     34      -0.1358      0.00000
     35      -0.0755      0.00000
     36      -0.0750      0.00000
     37       0.0712      0.00000
     38       0.2862      0.00000
     39       0.3022      0.00000
     40       0.3039      0.00000
     41       1.9601      0.00000
     42       1.9639      0.00000
     43       2.5186      0.00000
     44       2.8258      0.00000


--------------------------------------------------------------------------------------------------------


 soft charge-density along one line, spin component           1
         0         1         2         3         4         5         6         7         8         9
 total charge-density along one line

 soft charge-density along one line, spin component           2
         0         1         2         3         4         5         6         7         8         9
 total charge-density along one line

 pseudopotential strength for first ion, spin component:           1
-49.430  -0.000  -0.000  19.797   0.000   0.000  -0.000  -0.000
 -0.000 -49.439  -0.000   0.000  19.803   0.000   0.000   0.000
 -0.000  -0.000 -49.430   0.000   0.000  19.797  -0.002   0.000
 19.797   0.000   0.000  -2.492  -0.000  -0.000   0.000   0.000
  0.000  19.803   0.000  -0.000  -2.495  -0.000  -0.000  -0.000
  0.000   0.000  19.797  -0.000  -0.000  -2.492   0.001  -0.000
 -0.000   0.000  -0.002   0.000  -0.000   0.001 -11.580   0.726
 -0.000   0.000   0.000   0.000  -0.000  -0.000   0.726 -11.027
 -0.000  -0.000   0.000   0.000   0.000  -0.000   0.000   0.000
  0.000  -0.000  -0.000  -0.000   0.000   0.000   0.000  -0.000
 -0.002   0.000   0.000   0.001  -0.000   0.000   0.000   0.000
  0.000  -0.000   0.000  -0.000   0.000  -0.000   0.566  -0.061
  0.000  -0.000  -0.000  -0.000   0.000   0.000  -0.061   0.520
  0.000   0.000  -0.000  -0.000  -0.000   0.000  -0.000  -0.000
 -0.000   0.000   0.000   0.000  -0.000  -0.000  -0.000   0.000
  0.000  -0.000  -0.000  -0.000   0.000  -0.000  -0.000  -0.000
 -0.000   0.000   0.000   0.000  -0.000  -0.000   0.000   0.000
  0.000  -0.000  -0.000  -0.000   0.000   0.000  -0.000  -0.000
 pseudopotential strength for first ion, spin component:           2
-47.502  -0.000   0.000  18.442   0.000  -0.000  -0.000  -0.000
 -0.000 -47.523  -0.000   0.000  18.456   0.000   0.000   0.000
  0.000  -0.000 -47.502  -0.000   0.000  18.442   0.000   0.000
 18.442   0.000  -0.000  -1.653  -0.000   0.000   0.000   0.000
  0.000  18.456   0.000  -0.000  -1.662  -0.000  -0.000  -0.000
 -0.000   0.000  18.442   0.000  -0.000  -1.653  -0.001  -0.000
 -0.000   0.000   0.000   0.000  -0.000  -0.001  -7.909  -0.349
 -0.000   0.000   0.000   0.000  -0.000  -0.000  -0.349  -8.186
 -0.000  -0.000   0.000   0.000   0.000  -0.000  -0.000   0.000
  0.000  -0.000  -0.000  -0.000   0.000   0.000  -0.000   0.000
  0.000   0.000   0.000  -0.001  -0.000  -0.000  -0.000  -0.000
  0.000  -0.000  -0.000  -0.000   0.000   0.000   0.121   0.046
  0.000  -0.000  -0.000  -0.000   0.000   0.000   0.046   0.158
  0.000   0.000  -0.000  -0.000  -0.000   0.000   0.000  -0.000
 -0.000   0.000   0.000   0.000  -0.000  -0.000   0.000  -0.000
 -0.000  -0.000  -0.000   0.000   0.000   0.000   0.000   0.000
 -0.000   0.000   0.000   0.000  -0.000  -0.000  -0.000   0.000
  0.000  -0.000  -0.000  -0.000   0.000   0.000   0.000  -0.000
 total augmentation occupancy for first ion, spin component:           1
  1.983   0.000   0.000  -0.014   0.000   0.000   0.000   0.000  -0.000  -0.000   0.000   0.000  -0.000  -0.000   0.000   0.003
  0.000   1.983   0.000   0.000  -0.014  -0.000   0.000   0.000  -0.000   0.000  -0.000   0.000  -0.000  -0.000   0.000  -0.000
 -0.000   0.000   1.983  -0.000   0.000  -0.014   0.000   0.000   0.000   0.000  -0.000   0.003  -0.000   0.000  -0.000  -0.000
 -0.014   0.000  -0.000   0.115   0.000  -0.000   0.000   0.000  -0.000  -0.000   0.003   0.000   0.000  -0.000   0.003   0.011
  0.000  -0.014   0.000   0.000   0.115   0.000  -0.000   0.000   0.000   0.000  -0.000   0.000  -0.000  -0.000   0.000  -0.000
  0.000   0.000  -0.014  -0.000   0.000   0.115   0.003   0.000   0.000   0.000  -0.000   0.011  -0.003   0.000   0.000  -0.000
  0.000  -0.000   0.000   0.000   0.000   0.003   0.944  -0.177   0.000  -0.000   0.000  -0.055   0.205  -0.000   0.000   0.000
  0.000   0.000   0.000   0.000   0.000   0.000  -0.177   0.807  -0.000  -0.000  -0.000   0.203   0.100   0.000   0.000   0.000
 -0.000  -0.000   0.000  -0.000   0.000   0.000   0.000  -0.000   1.062  -0.000  -0.000  -0.000   0.000  -0.199   0.000   0.000
 -0.000   0.000   0.000  -0.000   0.000   0.000  -0.000   0.000  -0.000   0.807   0.177   0.000  -0.000   0.000   0.100  -0.203
  0.000  -0.000  -0.000   0.003  -0.000  -0.000   0.000  -0.000  -0.000   0.177   0.944  -0.000   0.000   0.000  -0.205  -0.055
  0.000   0.000   0.003   0.000   0.000   0.011  -0.055   0.203  -0.000   0.000  -0.000   0.168   0.007   0.000   0.000   0.000
 -0.000  -0.000  -0.000   0.000   0.000  -0.003   0.205   0.100   0.000  -0.000   0.000   0.007   0.167   0.000   0.000   0.000
 -0.000  -0.000   0.000  -0.000  -0.000   0.000  -0.000   0.000  -0.199   0.000   0.000   0.000   0.000   0.156   0.000  -0.000
  0.000   0.000  -0.000   0.003   0.000   0.000   0.000   0.000   0.000   0.100  -0.205   0.000  -0.000   0.000   0.167  -0.007
  0.003  -0.000  -0.000   0.011  -0.000  -0.000   0.000   0.000   0.000  -0.203  -0.055   0.000   0.000  -0.000  -0.007   0.168
  0.000   0.000   0.000   0.000   0.000  -0.000  -0.000   0.000  -0.002  -0.000   0.000  -0.000   0.000   0.005   0.000   0.000
 -0.000  -0.000  -0.000   0.000  -0.000   0.000   0.000  -0.000   0.002   0.000  -0.000  -0.000   0.000   0.000   0.000   0.000
 total augmentation occupancy for first ion, spin component:           2
 -0.002   0.000  -0.000  -0.002   0.000   0.000   0.000   0.000   0.000  -0.001  -0.000  -0.000   0.000  -0.000   0.000   0.000
  0.000  -0.002   0.000   0.000  -0.002   0.000   0.000   0.000   0.000   0.000   0.000   0.000   0.000  -0.000   0.000   0.000
  0.000   0.000  -0.002  -0.000   0.000  -0.002  -0.000   0.001  -0.000   0.000  -0.000   0.000  -0.000   0.000   0.000   0.000
 -0.002   0.000  -0.000   0.018   0.000  -0.000   0.000   0.000   0.000  -0.004  -0.003  -0.000  -0.000  -0.000   0.001   0.003
  0.000  -0.002   0.000   0.000   0.016   0.000   0.000   0.000   0.000   0.000   0.000   0.000  -0.000  -0.000   0.000   0.000
  0.000   0.000  -0.002  -0.000   0.000   0.018  -0.003   0.004  -0.000   0.000  -0.000   0.003  -0.001   0.000  -0.000   0.000
  0.000   0.000  -0.000   0.000   0.000  -0.003   0.791  -0.313   0.000  -0.000   0.000  -0.180   0.104  -0.000   0.000  -0.000
  0.000   0.000   0.001   0.000   0.000   0.004  -0.313   0.548  -0.000   0.000  -0.000   0.103  -0.100   0.000  -0.000   0.000
  0.000   0.000  -0.000   0.000   0.000  -0.000   0.000  -0.000   1.008  -0.000  -0.000  -0.000   0.000  -0.251   0.000   0.000
 -0.001   0.000   0.000  -0.004  -0.000   0.000  -0.000  -0.000  -0.000   0.548   0.313   0.000   0.000   0.000  -0.100  -0.103
 -0.000   0.000  -0.000  -0.003   0.000  -0.000   0.000  -0.000  -0.000   0.313   0.791   0.000   0.000   0.000  -0.104  -0.180
 -0.000   0.000   0.000  -0.000   0.000   0.003  -0.180   0.103  -0.000   0.000   0.000   0.055  -0.077   0.000  -0.000   0.000
  0.000  -0.000  -0.000  -0.000  -0.000  -0.001   0.104  -0.100   0.000   0.000   0.000  -0.077  -0.006  -0.000   0.000  -0.000
 -0.000  -0.000   0.000  -0.000  -0.000   0.000  -0.000   0.000  -0.251   0.000   0.000   0.000  -0.000   0.105  -0.000  -0.000
  0.000  -0.000   0.000   0.001  -0.000  -0.000   0.000  -0.000   0.000  -0.100  -0.104  -0.000  -0.000  -0.000  -0.006   0.077
  0.000   0.000   0.000   0.003   0.000   0.000  -0.000   0.000   0.000  -0.103  -0.180   0.000  -0.000  -0.000   0.077   0.055
  0.000   0.000   0.000   0.000   0.000   0.000  -0.000  -0.000  -0.005   0.000   0.000   0.000   0.000   0.003   0.000  -0.000
  0.000  -0.000  -0.000  -0.000   0.000   0.000   0.000  -0.000   0.002  -0.000  -0.000  -0.000   0.000  -0.000   0.000   0.000


------------------------ aborting loop because EDIFF is reached ----------------------------------------





 total charge

# of ion       s       p       d       tot
------------------------------------------
    1        0.250   6.211   3.952  10.412
    2        0.250   6.211   3.952  10.412
    3        1.513   2.771   0.018   4.302
    4        1.513   2.771   0.018   4.302
    5        1.513   2.771   0.018   4.302
    6        1.513   2.771   0.018   4.302
    7        1.513   2.771   0.018   4.302
    8        1.513   2.771   0.018   4.302
--------------------------------------------------
tot          9.576  29.049   8.012  46.638



 magnetization (x)

# of ion       s       p       d       tot
------------------------------------------
    1        0.037   0.035   3.244   3.316
    2        0.037   0.035   3.244   3.316
    3       -0.003  -0.129   0.003  -0.128
    4       -0.003  -0.129   0.003  -0.128
    5       -0.003  -0.129   0.003  -0.128
    6       -0.003  -0.129   0.003  -0.128
    7       -0.003  -0.129   0.003  -0.128
    8       -0.003  -0.129   0.003  -0.128
--------------------------------------------------
tot          0.055  -0.701   6.509   5.863

    CHARGE:  cpu time      0.2722: real time      0.2746
    FORLOC:  cpu time      0.0093: real time      0.0093
    FORNL :  cpu time      0.9404: real time      0.9486
    STRESS:  cpu time      3.0372: real time      3.0706
    FORCOR:  cpu time      0.1415: real time      0.1431
    FORHAR:  cpu time      0.0157: real time      0.0158
    MIXING:  cpu time      0.2290: real time      0.2303
    OFIELD:  cpu time      0.0000: real time      0.0000

 ---------------------------------------------------------------------------------------------

         DFTD3 V3.0 Rev 1        
 DF pbe       
 parameters
 rs18     =    1.0000
 alpha6   =   14.0000
 alpha8   =   16.0000
 k1-k3    =   16.0000    1.3333   -4.0000
 Edisp (eV)   -1.29847

 E6    (eV) :    -0.4038
 E8    (eV) :    -0.8947
 % E8        : 68.90
    FORVDW:  cpu time      0.0218: real time      0.0376

  FORCE on cell =-STRESS in cart. coord.  units (eV):
  Direction    XX          YY          ZZ          XY          YZ          ZX
  --------------------------------------------------------------------------------------
  Alpha Z    25.68431    25.68431    25.68431
  Ewald   10278.37733 10278.37745-12510.43576     0.00003     0.00000    -0.00000
  Hartree 11400.21054 11400.21059-10371.17393     0.00001    -0.00000     0.00000
  E(xc)    -295.27535  -295.27535  -295.82148     0.00000    -0.00000    -0.00000
  Local  -22727.37432-22727.37465 21831.61257    -0.00019     0.00000     0.00000
  n-local   698.10313   698.32491   699.03970    -0.24223    -0.17073     0.18053
  augment  -110.02451  -110.02436  -110.65476     0.00013    -0.00002    -0.00001
  Kinetic   731.26299   730.11270   731.26592     0.52570    -0.11885    -0.02042
  Fock        0.00000     0.00000     0.00000     0.00000     0.00000     0.00000
  vdW        -0.76946    -0.76946     0.22186     0.00000     0.00000    -0.00000
  -------------------------------------------------------------------------------------
  Total      -0.26959    -0.26959    -0.26157     0.00000    -0.00000     0.00000
  in kB      -0.44516    -0.44516    -0.43193     0.00000    -0.00000     0.00000
  external pressure =       -0.44 kB  Pullay stress =        0.00 kB


 VOLUME and BASIS-vectors are now :
 -----------------------------------------------------------------------------
  energy-cutoff  :      350.00
  volume of cell :      970.28
      direct lattice vectors                 reciprocal lattice vectors
     6.979410653  0.000000000  0.000000000     0.143278573  0.082721923 -0.000000000
    -3.489705327  6.044346929  0.000000000     0.000000000  0.165443846  0.000000000
     0.000000000  0.000000000 23.000000000     0.000000000 -0.000000000  0.043478261

  length of vectors
     6.979410653  6.979410653 23.000000000     0.165443846  0.165443846  0.043478261


 FORCES acting on ions
    electron-ion (+dipol)            ewald-force                    non-local-force                 convergence-correction
 -----------------------------------------------------------------------------------------------
   0.992E-06 -.168E-05 -.300E-01   -.198E-04 0.343E-04 0.303E-01   -.345E-18 -.889E-20 -.402E-03   -.120E-08 0.286E-08 -.124E-04
   0.639E-04 -.110E-03 0.101E+00   0.771E-05 -.133E-04 -.101E+00   0.354E-19 -.161E-18 0.521E-03   0.418E-08 -.391E-08 -.734E-05
   -.440E+02 -.762E+02 0.491E+03   0.450E+02 0.779E+02 -.494E+03   -.968E+00 -.168E+01 0.259E+01   -.504E-05 -.105E-04 -.264E-04
   0.880E+02 -.247E-02 0.491E+03   -.899E+02 0.261E-02 -.494E+03   0.194E+01 -.350E-03 0.259E+01   0.116E-04 0.899E-06 -.264E-04
   -.440E+02 0.762E+02 0.491E+03   0.450E+02 -.779E+02 -.494E+03   -.968E+00 0.168E+01 0.259E+01   -.659E-05 0.962E-05 -.264E-04
   0.440E+02 0.762E+02 -.491E+03   -.450E+02 -.779E+02 0.494E+03   0.968E+00 0.168E+01 -.259E+01   0.509E-05 0.947E-05 0.250E-04
   -.880E+02 -.119E-02 -.491E+03   0.899E+02 0.835E-03 0.494E+03   -.193E+01 0.462E-03 -.259E+01   -.107E-04 -.326E-06 0.250E-04
   0.440E+02 -.762E+02 -.491E+03   -.450E+02 0.779E+02 0.494E+03   0.967E+00 -.168E+01 -.259E+01   0.566E-05 -.915E-05 0.250E-04
 -----------------------------------------------------------------------------------------------
   0.406E-03 -.703E-03 0.914E-03   0.497E-13 0.142E-13 -.114E-12   0.000E+00 0.000E+00 -.866E-03   0.281E-08 -.804E-09 -.239E-04


 POSITION                                       TOTAL-FORCE (eV/Angst)
 -----------------------------------------------------------------------------------
      0.00000      0.00000     11.50003        -0.000000      0.000000     -0.000142
      3.48971      2.01478     11.49982        -0.000000      0.000000      0.000478
      5.75119      1.90209      9.90169        -0.000206     -0.000118      0.000619
      2.45655      4.02963      9.90169         0.000205     -0.000119      0.000619
      2.26137      0.11262      9.90169         0.000001      0.000237      0.000619
      4.71805      0.11293     13.09831         0.000112     -0.000254     -0.000731
      4.52259      4.02949     13.09831         0.000164      0.000224     -0.000731
      1.22848      1.90194     13.09831        -0.000276      0.000030     -0.000731
 -----------------------------------------------------------------------------------
    total drift:                                0.000406     -0.000703      0.000024


--------------------------------------------------------------------------------------------------------



  FREE ENERGIE OF THE ION-ELECTRON SYSTEM (eV)
  ---------------------------------------------------
  free  energy   TOTEN  =       -29.80958217 eV

  energy  without entropy=      -29.80958217  energy(sigma->0) =      -29.80958217



--------------------------------------------------------------------------------------------------------


    POTLOK:  cpu time      0.8993: real time      0.9054


--------------------------------------------------------------------------------------------------------


 into chain_force
 FREE:    1.0000000000000000        1.0000000000000000        1.0000000000000000        1.0000000000000000        1.0000000000000000        1.0000000000000000        1.0000000000000000        1.0000000000000000        1.0000000000000000        1.0000000000000000        1.0000000000000000        1.0000000000000000        1.0000000000000000        1.0000000000000000        1.0000000000000000        1.0000000000000000        1.0000000000000000        1.0000000000000000        1.0000000000000000        1.0000000000000000        1.0000000000000000        1.0000000000000000        1.0000000000000000        1.0000000000000000     
 stress matrix after NEB project (eV)
     -0.26959     -0.00000      0.00000
      0.00000     -0.26959      0.00000
      0.00000     -0.00000     -0.26157
  FORCES: max atom, RMS     0.000782    0.000652
  FORCE total and by dimension    0.001843    0.000731
  Stress total and by dimension    0.462358    0.269586


--------------------------------------------------------------------------------------------------------


  
 reached required accuracy - stopping structural energy minimisation
 writing wavefunctions
     LOOP+:  cpu time     69.1829: real time     70.4818
    4ORBIT:  cpu time      0.0000: real time      0.0000



 total charge

# of ion       s       p       d       tot
------------------------------------------
    1        0.250   6.211   3.952  10.412
    2        0.250   6.211   3.952  10.412
    3        1.513   2.771   0.018   4.302
    4        1.513   2.771   0.018   4.302
    5        1.513   2.771   0.018   4.302
    6        1.513   2.771   0.018   4.302
    7        1.513   2.771   0.018   4.302
    8        1.513   2.771   0.018   4.302
--------------------------------------------------
tot          9.576  29.049   8.012  46.638



 magnetization (x)

# of ion       s       p       d       tot
------------------------------------------
    1        0.037   0.035   3.244   3.316
    2        0.037   0.035   3.244   3.316
    3       -0.003  -0.129   0.003  -0.128
    4       -0.003  -0.129   0.003  -0.128
    5       -0.003  -0.129   0.003  -0.128
    6       -0.003  -0.129   0.003  -0.128
    7       -0.003  -0.129   0.003  -0.128
    8       -0.003  -0.129   0.003  -0.128
--------------------------------------------------
tot          0.055  -0.701   6.509   5.863


 total amount of memory used by VASP MPI-rank0    83238. kBytes
=======================================================================

   base      :      30000. kBytes
   nonl-proj :      13769. kBytes
   fftplans  :      12987. kBytes
   grid      :       9722. kBytes
   one-center:         31. kBytes
   wavefun   :      16729. kBytes

  
  
 General timing and accounting informations for this job:
 ========================================================
  
                  Total CPU time used (sec):       90.886
                            User time (sec):       67.499
                          System time (sec):       23.387
                         Elapsed time (sec):       97.735
  
                   Maximum memory used (kb):      299628.
                   Average memory used (kb):          N/A
  
                          Minor page faults:        75297
                          Major page faults:          280
                 Voluntary context switches:         4927
